
     Program PWSCF v.7.0 starts on  3May2022 at 14:12:49 
        Git branch: HEAD
        Last git commit: bcbb9787c58f17a467653707917172ffc4053dd9
        Last git commit date: Tue Dec 21 10:27:04 2021 +0000
        Last git commit subject: Merge branch pw2gt_cmplx into develop         

     This program is part of the open-source Quantum ESPRESSO suite
     for quantum simulation of materials; please cite
         "P. Giannozzi et al., J. Phys.:Condens. Matter 21 395502 (2009);
         "P. Giannozzi et al., J. Phys.:Condens. Matter 29 465901 (2017);
         "P. Giannozzi et al., J. Chem. Phys. 152 154105 (2020);
          URL http://www.quantum-espresso.org", 
     in publications or presentations arising from this work. More details at
     http://www.quantum-espresso.org/quote

     Parallel version (MPI), running on    16 processors

     MPI processes distributed on     1 nodes
     K-points division:     npool     =      16
     104918 MiB available memory on the printing compute node when the environment starts

     Waiting for input...
     Reading input from standard input

     Current dimensions of program PWSCF are:
     Max number of different atomic species (ntypx) = 10
     Max number of k-points (npk) =  40000
     Max angular momentum in pseudopotentials (lmaxx) =  4
     Message from routine setup:
     using ibrav=0 with symmetry is DISCOURAGED, use correct ibrav instead

     Subspace diagonalization in iterative solution of the eigenvalue problem:
     a serial algorithm will be used


     G-vector sticks info
     --------------------
     sticks:   dense  smooth     PW     G-vecs:    dense   smooth      PW
     Sum        6687    2223    685               185911    35659    6017

     Using Slab Decomposition



     bravais-lattice index     =            0
     lattice parameter (alat)  =      13.4809  a.u.
     unit-cell volume          =     649.6539 (a.u.)^3
     number of atoms/cell      =            7
     number of atomic types    =            3
     number of electrons       =        65.00
     number of Kohn-Sham states=           40
     kinetic-energy cutoff     =      55.0000  Ry
     charge density cutoff     =     660.0000  Ry
     scf convergence threshold =      1.0E-10
     mixing beta               =       0.7000
     number of iterations used =            8  local-TF  mixing
     Exchange-correlation= SLA  PW   PBE  PBE
                           (   1   4   3   4   0   0   0)

     celldm(1)=  13.480858  celldm(2)=   0.000000  celldm(3)=   0.000000
     celldm(4)=   0.000000  celldm(5)=   0.000000  celldm(6)=   0.000000

     crystal axes: (cart. coord. in units of alat)
               a(1) = (  -0.267621   0.267621   0.925612 )  
               a(2) = (   0.267621  -0.267621   0.925612 )  
               a(3) = (   0.267621   0.267621  -0.925612 )  

     reciprocal axes: (cart. coord. in units 2 pi/alat)
               b(1) = (  0.000000  1.868314  0.540183 )  
               b(2) = (  1.868314  0.000000  0.540183 )  
               b(3) = (  1.868314  1.868314 -0.000000 )  


     PseudoPot. # 1 for La read from file:
     /mnt/home/sbeck/work/pseudo/gbrv_v1.5/la_pbe_v1.uspp.F.UPF
     MD5 check sum: 5937b0c7494ba0601a847275249473aa
     Pseudo is Ultrasoft + core correction, Zval = 11.0
     Generated by new atomic code, or converted to UPF format
     Using radial grid of  995 points,  8 beta functions with: 
                l(1) =   0
                l(2) =   0
                l(3) =   1
                l(4) =   1
                l(5) =   2
                l(6) =   2
                l(7) =   3
                l(8) =   3
     Q(r) pseudized with  8 coefficients,  rinner =    1.700   1.700   1.700
                                                       1.700   1.700   1.700
                                                       1.700

     PseudoPot. # 2 for Cu read from file:
     /mnt/home/sbeck/work/pseudo/gbrv_v1.5/cu_pbe_v1.2.uspp.F.UPF
     MD5 check sum: 6e991ff952a84172a2a52a1c1e996048
     Pseudo is Ultrasoft + core correction, Zval = 19.0
     Generated by new atomic code, or converted to UPF format
     Using radial grid of  867 points,  6 beta functions with: 
                l(1) =   0
                l(2) =   0
                l(3) =   1
                l(4) =   1
                l(5) =   2
                l(6) =   2
     Q(r) pseudized with  8 coefficients,  rinner =    1.150   1.150   1.150
                                                       1.150   1.150

     PseudoPot. # 3 for O  read from file:
     /mnt/home/sbeck/work/pseudo/gbrv_v1.5/o_pbe_v1.2.uspp.F.UPF
     MD5 check sum: 734c27235a0248c51dbae37a1fbe46ec
     Pseudo is Ultrasoft + core correction, Zval =  6.0
     Generated by new atomic code, or converted to UPF format
     Using radial grid of  737 points,  5 beta functions with: 
                l(1) =   0
                l(2) =   0
                l(3) =   1
                l(4) =   1
                l(5) =   2
     Q(r) pseudized with  8 coefficients,  rinner =    0.900   0.900   0.900
                                                       0.900   0.900

     atomic species   valence    mass     pseudopotential
        La            11.00   138.90500     La( 1.00)
        Cu            19.00    58.69340     Cu( 1.00)
        O              6.00    15.99940     O ( 1.00)

     16 Sym. Ops., with inversion, found



   Cartesian axes

     site n.     atom                  positions (alat units)
         1           La  tau(   1) = (  -0.0000000  -0.0000000   0.6686911  )
         2           La  tau(   2) = (   0.2676210   0.2676210   0.2569211  )
         3           Cu  tau(   3) = (  -0.0000000  -0.0000000  -0.0000000  )
         4           O   tau(   4) = (  -0.0000000   0.2676210   0.0000000  )
         5           O   tau(   5) = (   0.2676210  -0.0000000   0.0000000  )
         6           O   tau(   6) = (  -0.0000000  -0.0000000   0.3437490  )
         7           O   tau(   7) = (   0.2676210   0.2676210   0.5818632  )

     number of k points=    40  Methfessel-Paxton smearing, width (Ry)=  0.0100
                       cart. coord. in units 2pi/alat
        k(    1) = (   0.0000000   0.0000000   0.0000000), wk =   0.0058309
        k(    2) = (   0.2669020   0.2669020  -0.0000000), wk =   0.0233236
        k(    3) = (   0.5338039   0.5338039  -0.0000000), wk =   0.0233236
        k(    4) = (   0.8007059   0.8007059  -0.0000000), wk =   0.0233236
        k(    5) = (   0.2669020   0.0000000   0.0771690), wk =   0.0466472
        k(    6) = (   0.5338039   0.2669020   0.0771690), wk =   0.0932945
        k(    7) = (   0.8007059   0.5338039   0.0771690), wk =   0.0932945
        k(    8) = (   1.0676079   0.8007059   0.0771690), wk =   0.0466472
        k(    9) = (   0.5338039   0.0000000   0.1543380), wk =   0.0466472
        k(   10) = (   0.8007059   0.2669020   0.1543380), wk =   0.0932945
        k(   11) = (   1.0676079   0.5338039   0.1543380), wk =   0.0932945
        k(   12) = (   0.2669020  -0.2669020   0.1543380), wk =   0.0466472
        k(   13) = (   0.8007059   0.0000000   0.2315070), wk =   0.0466472
        k(   14) = (   1.0676079   0.2669020   0.2315070), wk =   0.0932945
        k(   15) = (   1.3345099   0.5338039   0.2315070), wk =   0.0466472
        k(   16) = (   0.2669020  -0.5338039   0.2315070), wk =   0.0932945
        k(   17) = (   0.5338039   0.5338039   0.1543380), wk =   0.0466472
        k(   18) = (   0.8007059   0.8007059   0.1543380), wk =   0.0466472
        k(   19) = (  -0.0000000  -0.0000000   0.1543380), wk =   0.0116618
        k(   20) = (   0.8007059   0.5338039   0.2315070), wk =   0.0932945
        k(   21) = (   1.0676079   0.8007059   0.2315070), wk =   0.0466472
        k(   22) = (  -0.0000000  -0.2669020   0.2315070), wk =   0.0466472
        k(   23) = (  -0.0000000  -0.5338039   0.3086760), wk =   0.0466472
        k(   24) = (   0.2669020  -0.2669020   0.3086760), wk =   0.0466472
        k(   25) = (  -0.0000000   1.0676079  -0.1543380), wk =   0.0466472
        k(   26) = (  -1.6014118  -0.5338039  -0.1543380), wk =   0.0932945
        k(   27) = (   0.0000000   0.8007059  -0.0771690), wk =   0.0466472
        k(   28) = (   0.2669020   1.0676079  -0.0771690), wk =   0.0932945
        k(   29) = (  -1.3345099  -0.5338039  -0.0771690), wk =   0.0466472
        k(   30) = (  -0.0000000   0.5338039  -0.0000000), wk =   0.0233236
        k(   31) = (   0.2669020   0.8007059  -0.0000000), wk =   0.0466472
        k(   32) = (   0.5338039   1.0676079  -0.0000000), wk =   0.0466472
        k(   33) = (  -0.0000000  -0.0000000   0.3086760), wk =   0.0116618
        k(   34) = (  -0.0000000  -0.2669020   0.3858450), wk =   0.0466472
        k(   35) = (  -0.0000000   1.3345099  -0.0771690), wk =   0.0466472
        k(   36) = (  -1.6014118  -0.2669020  -0.0771690), wk =   0.0466472
        k(   37) = (   0.0000000   1.0676079   0.0000000), wk =   0.0233236
        k(   38) = (   0.2669020   1.3345099   0.0000000), wk =   0.0466472
        k(   39) = (  -0.0000000  -0.0000000   0.4630140), wk =   0.0116618
        k(   40) = (  -0.0000000   1.6014118  -0.0000000), wk =   0.0233236

     Dense  grid:   185911 G-vectors     FFT dimensions: ( 120, 120, 120)

     Smooth grid:    35659 G-vectors     FFT dimensions: (  64,  64,  64)

     Estimated max dynamical RAM per process >     345.58 MB

     Estimated total dynamical RAM >       4.73 GB

     Check: negative core charge=   -0.000001

     The initial density is read from file :
     /mnt/ceph/users/sbeck/QE_tmp/lco.save/charge-density


     negative rho (up, down):  1.020E-01 0.000E+00
     Starting wfcs are   69 randomized atomic wfcs

     total cpu time spent up to now is        5.4 secs

     per-process dynamical memory:   247.8 Mb

     Self-consistent Calculation

     iteration #  1     ecut=    55.00 Ry     beta= 0.70
     Davidson diagonalization with overlap
     c_bands:  1 eigenvalues not converged
     ethr =  1.00E-05,  avg # of iterations = 10.7

     Threshold (ethr) on eigenvalues was too large:
     Diagonalizing with lowered threshold

     Davidson diagonalization with overlap
     ethr =  6.37E-09,  avg # of iterations =  9.9

     negative rho (up, down):  1.020E-01 0.000E+00

     total cpu time spent up to now is       17.3 secs

     total energy              =    -738.84972958 Ry
     estimated scf accuracy    <          5.2E-10 Ry

     iteration #  2     ecut=    55.00 Ry     beta= 0.70
     Davidson diagonalization with overlap
     ethr =  8.02E-13,  avg # of iterations = 14.5

     negative rho (up, down):  1.020E-01 0.000E+00

     total cpu time spent up to now is       25.5 secs

     total energy              =    -738.84972965 Ry
     estimated scf accuracy    <          6.4E-10 Ry

     iteration #  3     ecut=    55.00 Ry     beta= 0.70
     Davidson diagonalization with overlap
     ethr =  8.02E-13,  avg # of iterations =  2.0

     negative rho (up, down):  1.020E-01 0.000E+00

     total cpu time spent up to now is       28.7 secs

     total energy              =    -738.84972965 Ry
     estimated scf accuracy    <          1.4E-10 Ry

     iteration #  4     ecut=    55.00 Ry     beta= 0.70
     Davidson diagonalization with overlap
     ethr =  2.08E-13,  avg # of iterations =  2.0

     negative rho (up, down):  1.020E-01 0.000E+00

     total cpu time spent up to now is       32.0 secs

     End of self-consistent calculation

          k = 0.0000 0.0000 0.0000 (  4461 PWs)   bands (ev):

   -99.7143 -57.2992 -57.2992 -56.7554 -19.2672 -19.1109  -6.9195  -5.1301
    -5.0985  -4.6643  -2.6797  -2.6797  -2.6146  -2.6146  -2.1442  -1.3046
     7.3763   7.3763   7.9366   8.6898   8.8400   9.7878   9.7878   9.8155
    10.0215  10.0215  10.2813  10.2813  10.7467  10.7467  10.8375  11.2038
    11.2354  14.3096  14.9066  15.4150  15.8952  15.9464  15.9689  15.9689

          k = 0.2669 0.2669-0.0000 (  4490 PWs)   bands (ev):

   -99.7143 -57.2992 -57.2992 -56.7554 -19.2325 -19.0962  -6.7389  -5.3102
    -5.2902  -4.9000  -2.8220  -2.5841  -2.5444  -2.4038  -1.9813  -1.4539
     6.8970   7.3442   7.8162   8.6653   8.6855   9.0037   9.6919   9.6992
     9.7025   9.8943  10.3202  10.5537  10.5678  10.6772  11.2098  11.4462
    11.9422  14.7471  15.4118  15.4816  15.9299  15.9740  15.9906  16.1124

          k = 0.5338 0.5338-0.0000 (  4490 PWs)   bands (ev):

   -99.7144 -57.2992 -57.2992 -56.7554 -19.1554 -19.0651  -6.3257  -5.6580
    -5.4043  -5.1001  -3.1231  -2.6889  -2.4543  -2.3116  -1.8779  -1.8095
     5.9509   7.0756   7.5414   7.9652   8.3898   9.1294   9.3695   9.4883
     9.5633   9.9906  10.3464  10.6370  11.1550  11.1836  11.3144  11.8161
    13.4143  15.5164  15.5860  15.8182  15.9018  15.9111  15.9200  16.0664

          k = 0.8007 0.8007-0.0000 (  4460 PWs)   bands (ev):

   -99.7144 -57.2992 -57.2992 -56.7553 -19.0947 -19.0417  -6.0137  -5.9108
    -5.1389  -4.9991  -3.3485  -3.0329  -2.6151  -2.4268  -2.3125  -1.8358
     5.1988   6.8008   7.0418   8.1306   8.2164   9.1800   9.4327   9.4549
     9.6443  10.5620  10.5723  10.8198  11.3329  11.5409  11.5939  12.1262
    14.6000  15.6947  15.7757  15.8419  15.8566  15.8632  15.8682  15.9633

          k = 0.2669 0.0000 0.0772 (  4463 PWs)   bands (ev):

   -99.7143 -57.2992 -57.2992 -56.7554 -19.2477 -19.1055  -6.8253  -5.3537
    -5.0908  -4.7966  -2.6896  -2.6651  -2.5887  -2.4824  -2.0495  -1.3794
     7.0946   7.4166   7.8501   8.7544   8.7729   9.2749   9.6616   9.6829
     9.9049  10.2387  10.2670  10.4050  10.4208  10.7203  11.0620  11.2305
    11.6195  14.4963  15.2337  15.4474  15.9665  15.9789  15.9912  16.0990

          k = 0.5338 0.2669 0.0772 (  4486 PWs)   bands (ev):

   -99.7144 -57.2992 -57.2992 -56.7554 -19.1902 -19.0833  -6.5106  -5.7335
    -5.1843  -5.0911  -2.8938  -2.6215  -2.5282  -2.3180  -1.8092  -1.5897
     6.3857   7.3230   7.7598   8.1585   8.5782   8.9643   9.4281   9.4837
     9.6328   9.8355  10.3322  10.3607  10.7919  11.0411  11.2786  11.5910
    12.5923  15.2165  15.5431  15.7218  15.9387  15.9691  16.0088  16.0917

          k = 0.8007 0.5338 0.0772 (  4468 PWs)   bands (ev):

   -99.7144 -57.2992 -57.2992 -56.7554 -19.1203 -19.0574  -6.1399  -5.9332
    -5.1683  -5.1171  -3.1586  -2.8662  -2.6096  -2.4436  -1.9234  -1.7733
     5.5920   6.9833   7.2325   8.0729   8.3031   9.1195   9.3163   9.4034
     9.6828  10.2746  10.3873  10.5115  11.2391  11.3441  11.5223  11.9738
    13.8885  15.6485  15.7346  15.8245  15.8590  15.9119  15.9293  15.9990

          k = 1.0676 0.8007 0.0772 (  4449 PWs)   bands (ev):

   -99.7144 -57.2992 -57.2992 -56.7553 -19.0902 -19.0463  -6.0542  -5.9313
    -5.0480  -4.9616  -3.2712  -3.1069  -2.7296  -2.6704  -2.0508  -1.8169
     5.2181   6.8002   7.0495   8.1474   8.2573   9.1786   9.3036   9.3757
     9.7752  10.4820  10.6569  10.7990  11.3466  11.5461  11.5791  12.1421
    14.5920  15.7324  15.7390  15.8264  15.8421  15.8939  15.9254  15.9394

          k = 0.5338 0.0000 0.1543 (  4491 PWs)   bands (ev):

   -99.7143 -57.2993 -57.2992 -56.7554 -19.2011 -19.0959  -6.5951  -5.7854
    -5.0665  -5.0508  -2.7283  -2.6278  -2.5337  -2.4265  -1.7872  -1.4718
     6.5430   7.5449   7.6712   8.6333   8.6597   8.7846   9.4559   9.4943
     9.6624   9.9826  10.0076  10.4165  10.5241  11.0456  11.1631  11.3274
    12.2447  15.0550  15.5071  15.6670  15.9967  16.0177  16.0502  16.0899

          k = 0.8007 0.2669 0.1543 (  4473 PWs)   bands (ev):

   -99.7144 -57.2993 -57.2992 -56.7554 -19.1479 -19.0808  -6.3063  -6.0323
    -5.2291  -5.0709  -2.9205  -2.6925  -2.5665  -2.4252  -1.6693  -1.5712
     6.0063   7.4035   7.7076   7.7700   8.5270   9.0156   9.2432   9.3539
     9.5675   9.8327  10.0345  10.3810  10.8116  11.3137  11.4868  11.6660
    12.9382  15.6077  15.6226  15.7795  15.9515  16.0043  16.0426  16.0551

          k = 1.0676 0.5338 0.1543 (  4465 PWs)   bands (ev):

   -99.7144 -57.2992 -57.2992 -56.7554 -19.1107 -19.0672  -6.2451  -5.8791
    -5.2156  -4.9037  -3.0913  -2.9700  -2.7930  -2.5611  -1.7993  -1.6886
     5.6350   6.9948   7.2125   8.1432   8.3582   9.0439   9.2484   9.3638
     9.7504  10.1341  10.4713  10.5145  11.2177  11.3686  11.4981  12.0221
    13.8832  15.7059  15.7349  15.7703  15.8747  15.9212  15.9489  15.9866

          k = 0.2669-0.2669 0.1543 (  4488 PWs)   bands (ev):

   -99.7143 -57.2992 -57.2992 -56.7554 -19.2260 -19.1031  -6.7415  -5.3349
    -5.2913  -4.8333  -2.8096  -2.6372  -2.5551  -2.4515  -1.9234  -1.4664
     6.9207   7.3384   7.8875   8.6814   8.6902   8.9973   9.4834   9.7095
     9.8435   9.9248  10.3332  10.4870  10.6493  10.6534  10.9792  11.6427
    11.9402  14.6516  15.4580  15.4950  15.9261  15.9730  15.9964  16.1109

          k = 0.8007 0.0000 0.2315 (  4484 PWs)   bands (ev):

   -99.7144 -57.2993 -57.2992 -56.7554 -19.1572 -19.0942  -6.4078  -6.0499
    -5.1917  -5.1009  -2.7936  -2.5947  -2.5084  -2.4914  -1.5882  -1.4608
     6.1436   7.5715   7.7796   8.1500   8.4392   8.9727   9.2835   9.3301
     9.3951   9.7446   9.8121  10.4459  10.5607  11.2748  11.2814  11.4852
    12.5910  15.5635  15.5950  15.7471  16.0244  16.0614  16.0788  16.1055

          k = 1.0676 0.2669 0.2315 (  4469 PWs)   bands (ev):

   -99.7144 -57.2993 -57.2992 -56.7554 -19.1408 -19.0881  -6.3851  -5.9522
    -5.2338  -5.0187  -2.9369  -2.6795  -2.6255  -2.4980  -1.6223  -1.5418
     6.0270   7.4459   7.6618   7.8077   8.5334   9.1331   9.2158   9.2897
     9.5446   9.7184  10.0661  10.4051  10.7958  11.3082  11.4601  11.7100
    12.9578  15.6150  15.6331  15.7566  15.9529  15.9978  16.0498  16.0538

          k = 1.3345 0.5338 0.2315 (  4472 PWs)   bands (ev):

   -99.7144 -57.2992 -57.2992 -56.7554 -19.1393 -19.0816  -6.4218  -5.6675
    -5.3525  -4.8678  -3.0099  -2.8966  -2.6782  -2.5644  -1.6965  -1.6260
     6.0462   7.0708   7.4986   8.1590   8.3999   9.0716   9.3000   9.3063
     9.6535  10.0665  10.2440  10.6432  11.0743  11.1785  11.2953  11.9639
    13.4021  15.5078  15.6497  15.8230  15.8254  15.8982  16.0013  16.0669

          k = 0.2669-0.5338 0.2315 (  4483 PWs)   bands (ev):

   -99.7144 -57.2992 -57.2992 -56.7554 -19.1798 -19.0940  -6.5543  -5.6903
    -5.2378  -4.9565  -2.8554  -2.7122  -2.5307  -2.5120  -1.6922  -1.5590
     6.4307   7.3302   7.8574   8.1305   8.5805   9.0202   9.3715   9.3986
     9.5824   9.9383  10.2810  10.3619  10.7515  11.0318  11.1809  11.7245
    12.6187  15.1856  15.5348  15.7357  15.9115  15.9720  16.0375  16.0954

          k = 0.5338 0.5338 0.1543 (  4476 PWs)   bands (ev):

   -99.7144 -57.2992 -57.2992 -56.7554 -19.1512 -19.0694  -6.3578  -5.6609
    -5.3891  -5.0284  -3.0926  -2.7622  -2.4839  -2.4386  -1.8141  -1.7344
     5.9822   7.0741   7.5209   8.0259   8.3925   9.1118   9.3394   9.4208
     9.5966  10.0771  10.2594  10.6422  11.1032  11.1820  11.3748  11.8298
    13.4107  15.5145  15.6042  15.8182  15.8564  15.9147  15.9641  16.0678

          k = 0.8007 0.8007 0.1543 (  4447 PWs)   bands (ev):

   -99.7144 -57.2992 -57.2992 -56.7553 -19.0939 -19.0426  -6.0217  -5.9149
    -5.1312  -4.9809  -3.3115  -3.1039  -2.6099  -2.4641  -2.2671  -1.8306
     5.2091   6.8007   7.0350   8.1546   8.2070   9.1295   9.4157   9.4402
     9.6985  10.5532  10.5772  10.8195  11.4127  11.5651  11.5842  12.0422
    14.5986  15.7096  15.7786  15.8156  15.8550  15.8592  15.8978  15.9570

          k =-0.0000-0.0000 0.1543 (  4469 PWs)   bands (ev):

   -99.7143 -57.2992 -57.2992 -56.7554 -19.2599 -19.1185  -6.9077  -5.1857
    -5.0985  -4.6055  -2.7144  -2.7144  -2.5785  -2.5785  -2.1238  -1.3613
     7.3688   7.3688   8.0139   8.7718   8.8478   9.7087   9.7087   9.8155
    10.0228  10.0228  10.3610  10.3610  10.7606  10.7606  10.8190  10.8373
    11.4824  14.0928  15.1403  15.3803  15.9500  15.9716  15.9719  16.0875

          k = 0.8007 0.5338 0.2315 (  4462 PWs)   bands (ev):

   -99.7144 -57.2992 -57.2992 -56.7554 -19.1164 -19.0613  -6.1891  -5.9122
    -5.1938  -5.0129  -3.1168  -2.9698  -2.6418  -2.4937  -1.8929  -1.7166
     5.6170   6.9892   7.2094   8.1089   8.3370   9.0529   9.2884   9.4473
     9.6346  10.2373  10.4136  10.5303  11.2117  11.4439  11.5265  11.9155
    13.8862  15.6798  15.7331  15.7998  15.8581  15.9222  15.9342  15.9924

          k = 1.0676 0.8007 0.2315 (  4438 PWs)   bands (ev):

   -99.7144 -57.2992 -57.2992 -56.7553 -19.0919 -19.0446  -6.0398  -5.9241
    -5.0980  -4.9565  -3.2139  -3.2130  -2.6628  -2.5626  -2.1478  -1.8208
     5.2208   6.8004   7.0344   8.1789   8.2104   9.0984   9.3808   9.4054
     9.7579  10.5137  10.6164  10.8135  11.4625  11.5628  11.5859  12.0036
    14.5951  15.7318  15.7706  15.7998  15.8405  15.8789  15.9250  15.9410

          k =-0.0000-0.2669 0.2315 (  4479 PWs)   bands (ev):

   -99.7143 -57.2992 -57.2992 -56.7554 -19.2344 -19.1195  -6.8177  -5.3726
    -5.1354  -4.6919  -2.7108  -2.7066  -2.5584  -2.5407  -1.9685  -1.4490
     7.1075   7.4083   7.9906   8.7690   8.8978   9.2010   9.4674   9.7487
    10.0616  10.0948  10.1403  10.4955  10.5536  10.7448  10.7470  11.2364
    11.8039  14.2768  15.3694  15.4592  15.9673  15.9840  15.9865  16.0763

          k =-0.0000-0.5338 0.3087 (  4486 PWs)   bands (ev):

   -99.7143 -57.2993 -57.2992 -56.7554 -19.1851 -19.1124  -6.6420  -5.6992
    -5.1955  -4.8799  -2.7341  -2.6645  -2.6251  -2.4950  -1.6793  -1.4861
     6.5732   7.5524   7.8106   8.5962   8.6226   8.9733   9.2550   9.5205
     9.6560   9.8924  10.0846  10.3341  10.5101  11.0686  11.0945  11.3282
    12.3744  14.9863  15.4496  15.7073  15.9915  16.0225  16.0257  16.0868

          k = 0.2669-0.2669 0.3087 (  4482 PWs)   bands (ev):

   -99.7143 -57.2992 -57.2992 -56.7554 -19.2078 -19.1219  -6.7478  -5.3674
    -5.2938  -4.7027  -2.7766  -2.7300  -2.5842  -2.5644  -1.8079  -1.5042
     6.9726   7.3251   8.0727   8.6722   8.6865   9.0657   9.3257   9.6527
     9.7946  10.1258  10.2635  10.4308  10.6007  10.7342  10.7734  11.8313
    11.9360  14.4839  15.3890  15.6417  15.9138  15.9639  16.0104  16.0913

          k =-0.0000 1.0676-0.1543 (  4492 PWs)   bands (ev):

   -99.7144 -57.2993 -57.2992 -56.7554 -19.1482 -19.1034  -6.4883  -5.9187
    -5.3382  -4.9591  -2.8584  -2.6094  -2.5455  -2.4761  -1.5357  -1.4683
     6.1558   7.6148   7.8101   8.1027   8.4909   9.0103   9.1520   9.2978
     9.5176   9.7167   9.8351  10.4103  10.4733  11.2811  11.3087  11.4667
    12.6454  15.5632  15.5886  15.7295  16.0207  16.0557  16.0653  16.1104

          k =-1.6014-0.5338-0.1543 (  4481 PWs)   bands (ev):

   -99.7144 -57.2992 -57.2992 -56.7554 -19.1610 -19.1133  -6.6039  -5.6056
    -5.3290  -4.7850  -2.8423  -2.7862  -2.6909  -2.5601  -1.5951  -1.5275
     6.4827   7.3433   7.9865   8.0925   8.6016   9.1232   9.2367   9.3260
     9.6185   9.9240  10.1992  10.3707  10.7596  10.9862  11.1082  11.8432
    12.6543  15.1422  15.5136  15.7655  15.9024  15.9520  16.0649  16.0958

          k = 0.0000 0.8007-0.0772 (  4475 PWs)   bands (ev):

   -99.7144 -57.2993 -57.2992 -56.7554 -19.1628 -19.0884  -6.3426  -6.0982
    -5.3567  -4.9722  -2.8327  -2.5787  -2.5079  -2.3889  -1.6408  -1.4599
     6.1330   7.5149   7.7559   8.1930   8.5572   8.7463   9.2507   9.2758
     9.6513   9.7892   9.8198  10.4184  10.5066  11.2687  11.3015  11.5004
    12.5547  15.5555  15.5889  15.7701  16.0293  16.0561  16.0916  16.1134

          k = 0.2669 1.0676-0.0772 (  4479 PWs)   bands (ev):

   -99.7144 -57.2993 -57.2992 -56.7554 -19.1331 -19.0959  -6.4425  -5.8427
    -5.3790  -4.8741  -2.9527  -2.7721  -2.6326  -2.4938  -1.5835  -1.5283
     6.0387   7.4903   7.6313   7.8234   8.5764   9.1172   9.1953   9.2085
     9.6377   9.7766  10.0385  10.3063  10.7849  11.2457  11.4613  11.7878
    12.9787  15.6068  15.6368  15.7441  15.9715  15.9896  16.0519  16.0556

          k =-1.3345-0.5338-0.0772 (  4468 PWs)   bands (ev):

   -99.7144 -57.2992 -57.2992 -56.7554 -19.1233 -19.0978  -6.4669  -5.6727
    -5.3211  -4.7338  -2.9707  -2.9099  -2.8759  -2.6627  -1.6162  -1.5662
     6.0897   7.0681   7.5023   8.2696   8.4074   9.0285   9.2314   9.2989
     9.6998   9.9021  10.3820  10.6215  11.0558  11.1717  11.1761  12.1016
    13.3948  15.5000  15.6975  15.8084  15.8382  15.8740  16.0137  16.0412

          k =-0.0000 0.5338-0.0000 (  4493 PWs)   bands (ev):

   -99.7143 -57.2993 -57.2992 -56.7554 -19.2067 -19.0900  -6.5732  -5.8109
    -5.1276  -5.0171  -2.7400  -2.5834  -2.5789  -2.2988  -1.8644  -1.4663
     6.5291   7.5414   7.6116   8.6731   8.6872   8.6927   9.4209   9.5912
     9.7719   9.8267  10.0861  10.3492  10.5880  11.0352  11.2393  11.3046
    12.1734  15.0837  15.5254  15.6559  16.0020  16.0109  16.0518  16.1099

          k = 0.2669 0.8007-0.0000 (  4466 PWs)   bands (ev):

   -99.7144 -57.2993 -57.2992 -56.7554 -19.1507 -19.0780  -6.2724  -6.0485
    -5.3156  -5.0194  -2.9205  -2.6454  -2.6319  -2.3436  -1.6957  -1.5864
     5.9949   7.3893   7.7164   7.7629   8.5327   8.9685   9.2531   9.2935
     9.7417   9.8732   9.9868  10.3272  10.8172  11.2785  11.5003  11.6820
    12.9317  15.6032  15.6120  15.7930  15.9573  15.9997  16.0415  16.0560

          k = 0.5338 1.0676-0.0000 (  4457 PWs)   bands (ev):

   -99.7144 -57.2992 -57.2992 -56.7554 -19.1076 -19.0703  -6.2682  -5.8627
    -5.2252  -4.8585  -3.0676  -2.9255  -2.9023  -2.6057  -1.7196  -1.7145
     5.6380   6.9959   7.2267   8.1557   8.3545   9.0807   9.2100   9.3226
     9.8413  10.0717  10.4570  10.5232  11.2472  11.2623  11.4967  12.1016
    13.8819  15.7112  15.7385  15.7543  15.8969  15.9212  15.9598  15.9891

          k =-0.0000-0.0000 0.3087 (  4462 PWs)   bands (ev):

   -99.7143 -57.2992 -57.2992 -56.7554 -19.2398 -19.1396  -6.8805  -5.2815
    -5.0985  -4.5045  -2.7572  -2.7572  -2.5325  -2.5325  -2.0511  -1.5137
     7.3517   7.3517   8.2107   8.8656   8.9806   9.5942   9.5942   9.8156
     9.9959   9.9959  10.3466  10.5128  10.5128  10.7860  10.7860  10.8369
    11.6058  13.8017  15.2444  15.4730  15.8186  15.9598  15.9794  15.9794

          k =-0.0000-0.2669 0.3858 (  4492 PWs)   bands (ev):

   -99.7143 -57.2992 -57.2992 -56.7554 -19.2106 -19.1441  -6.8088  -5.3795
    -5.1850  -4.5809  -2.7445  -2.7254  -2.6425  -2.5042  -1.8551  -1.5634
     7.1217   7.3977   8.1987   8.7784   9.0994   9.1321   9.3212   9.8167
     9.9269   9.9833  10.1565  10.4012  10.6638  10.6713  10.7738  11.2260
    11.9168  14.0831  15.2459  15.6564  15.9319  15.9707  15.9945  16.0106

          k =-0.0000 1.3345-0.0772 (  4482 PWs)   bands (ev):

   -99.7143 -57.2993 -57.2992 -56.7554 -19.1620 -19.1360  -6.6772  -5.5555
    -5.3690  -4.7345  -2.8663  -2.6847  -2.6453  -2.4733  -1.6156  -1.5016
     6.5965   7.5583   7.9212   8.5531   8.7147   9.0279   9.1012   9.5582
     9.7531   9.8281  10.0547  10.1389  10.5640  11.0757  11.0867  11.3221
    12.4590  14.9282  15.3916  15.7484  15.9894  15.9967  16.0302  16.0916

          k =-1.6014-0.2669-0.0772 (  4496 PWs)   bands (ev):

   -99.7143 -57.2992 -57.2992 -56.7554 -19.1823 -19.1480  -6.7533  -5.3802
    -5.2958  -4.6067  -2.7744  -2.7398  -2.6750  -2.6180  -1.7031  -1.5602
     7.0130   7.3142   8.2680   8.6336   8.6649   9.1885   9.2433   9.5329
     9.7985  10.1146  10.2622  10.3813  10.6056  10.6808  10.7880  11.9237
    11.9326  14.3731  15.3141  15.7513  15.8947  15.9389  16.0251  16.0574

          k = 0.0000 1.0676 0.0000 (  4494 PWs)   bands (ev):

   -99.7144 -57.2993 -57.2992 -56.7554 -19.1426 -19.1090  -6.5211  -5.8101
    -5.4778  -4.8656  -2.9275  -2.6149  -2.5265  -2.4703  -1.5075  -1.4810
     6.1608   7.6209   7.8240   8.0837   8.7045   8.7333   9.1365   9.2937
     9.7147   9.7232   9.8525  10.2223  10.4837  11.2834  11.3346  11.4571
    12.6724  15.5484  15.5924  15.7234  16.0194  16.0482  16.0665  16.1172

          k = 0.2669 1.3345 0.0000 (  4486 PWs)   bands (ev):

   -99.7144 -57.2992 -57.2992 -56.7554 -19.1388 -19.1356  -6.6246  -5.5339
    -5.4024  -4.7041  -2.8884  -2.8358  -2.6452  -2.6277  -1.5560  -1.5187
     6.5043   7.3505   8.0464   8.0737   8.6304   9.1430   9.2015   9.3004
     9.6177   9.9322  10.1313  10.3779  10.7735  10.9511  11.0937  11.8867
    12.6713  15.1213  15.5009  15.7825  15.9181  15.9237  16.0786  16.0923

          k =-0.0000-0.0000 0.4630 (  4470 PWs)   bands (ev):

   -99.7143 -57.2992 -57.2992 -56.7554 -19.2128 -19.1673  -6.8580  -5.3434
    -5.0986  -4.4406  -2.7817  -2.7817  -2.5056  -2.5056  -1.9117  -1.7153
     7.3378   7.3378   8.4044   8.8802   9.2117   9.5283   9.5283   9.8157
     9.9425   9.9698   9.9698  10.6222  10.6222  10.7975  10.7975  10.8365
    11.6382  13.6319  15.0882  15.6894  15.7897  15.9687  15.9861  15.9862

          k =-0.0000 1.6014-0.0000 (  4506 PWs)   bands (ev):

   -99.7143 -57.2992 -57.2992 -56.7554 -19.1889 -19.1661  -6.8051  -5.3756
    -5.2096  -4.5347  -2.7566  -2.7296  -2.6817  -2.4908  -1.7650  -1.6571
     7.1274   7.3928   8.3091   8.7925   9.1063   9.2042   9.2667   9.7848
     9.8562   9.9280  10.1806  10.3388  10.6909  10.7054  10.7857  11.2195
    11.9498  14.0101  15.1762  15.7385  15.9065  15.9729  15.9747  15.9978

     the Fermi energy is    12.7367 ev

!    total energy              =    -738.84972965 Ry
     estimated scf accuracy    <          2.9E-11 Ry
     smearing contrib. (-TS)   =       0.00022276 Ry
     internal energy E=F+TS    =    -738.84995240 Ry

     The total energy is F=E-TS. E is the sum of the following terms:
     one-electron contribution =    -459.89931215 Ry
     hartree contribution      =     272.41717982 Ry
     xc contribution           =    -166.87351259 Ry
     ewald contribution        =    -384.49430747 Ry

     convergence has been achieved in   4 iterations

     negative rho (up, down):  1.020E-01 0.000E+00

     Forces acting on atoms (cartesian axes, Ry/au):

     atom    1 type  1   force =    -0.00000000   -0.00000000   -0.00002598
     atom    2 type  1   force =     0.00000000    0.00000000    0.00002598
     atom    3 type  2   force =     0.00000000    0.00000000    0.00000000
     atom    4 type  3   force =    -0.00000000   -0.00000000    0.00000000
     atom    5 type  3   force =    -0.00000000   -0.00000000    0.00000000
     atom    6 type  3   force =     0.00000000    0.00000000    0.00000672
     atom    7 type  3   force =    -0.00000000   -0.00000000   -0.00000672

     Total force =     0.000038     Total SCF correction =     0.000008
     SCF correction compared to forces is large: reduce conv_thr to get better values


     Computing stress (Cartesian axis) and pressure


     negative rho (up, down):  1.020E-01 0.000E+00
          total   stress  (Ry/bohr**3)                   (kbar)     P=        0.02
   0.00000029   0.00000000  -0.00000000            0.04        0.00       -0.00
   0.00000000   0.00000029   0.00000000            0.00        0.04        0.00
   0.00000000   0.00000000  -0.00000008            0.00        0.00       -0.01


     Writing all to output data dir /mnt/ceph/users/sbeck/QE_tmp/lco.save/

     init_run     :      4.54s CPU      4.96s WALL (       1 calls)
     electrons    :     26.07s CPU     26.64s WALL (       1 calls)
     forces       :      2.31s CPU      2.39s WALL (       1 calls)
     stress       :      5.38s CPU      5.56s WALL (       1 calls)

     Called by init_run:
     wfcinit      :      1.12s CPU      1.27s WALL (       1 calls)
     potinit      :      0.96s CPU      1.12s WALL (       1 calls)
     hinit0       :      2.25s CPU      2.32s WALL (       1 calls)

     Called by electrons:
     c_bands      :     18.69s CPU     18.79s WALL (       5 calls)
     sum_band     :      2.63s CPU      2.76s WALL (       5 calls)
     v_of_rho     :      4.49s CPU      4.77s WALL (       5 calls)
     newd         :      0.60s CPU      0.71s WALL (       5 calls)
     mix_rho      :      0.40s CPU      0.40s WALL (       5 calls)

     Called by c_bands:
     init_us_2    :      0.18s CPU      0.19s WALL (      39 calls)
     init_us_2:cp :      0.18s CPU      0.18s WALL (      39 calls)
     cegterg      :     17.08s CPU     17.16s WALL (      15 calls)

     Called by *egterg:
     cdiaghg      :      0.23s CPU      0.23s WALL (     137 calls)
     h_psi        :     15.95s CPU     16.01s WALL (     143 calls)
     s_psi        :      0.39s CPU      0.39s WALL (     143 calls)
     g_psi        :      0.04s CPU      0.04s WALL (     125 calls)

     Called by h_psi:
     h_psi:calbec :      0.35s CPU      0.35s WALL (     143 calls)
     vloc_psi     :     15.15s CPU     15.21s WALL (     143 calls)
     add_vuspsi   :      0.41s CPU      0.41s WALL (     143 calls)

     General routines
     calbec       :      0.46s CPU      0.46s WALL (     173 calls)
     fft          :      1.30s CPU      1.34s WALL (      89 calls)
     ffts         :      0.17s CPU      0.17s WALL (     103 calls)
     fftw         :     13.88s CPU     13.94s WALL (    7690 calls)
     interpolate  :      0.12s CPU      0.12s WALL (       5 calls)

     Parallel routines

     PWSCF        :     38.65s CPU     40.52s WALL


   This run was terminated on:  14:13:30   3May2022            

=------------------------------------------------------------------------------=
   JOB DONE.
=------------------------------------------------------------------------------=
