
     Program PWSCF v.7.0 starts on  3May2022 at 13:43:29 
        Git branch: HEAD
        Last git commit: bcbb9787c58f17a467653707917172ffc4053dd9
        Last git commit date: Tue Dec 21 10:27:04 2021 +0000
        Last git commit subject: Merge branch pw2gt_cmplx into develop         

     This program is part of the open-source Quantum ESPRESSO suite
     for quantum simulation of materials; please cite
         "P. Giannozzi et al., J. Phys.:Condens. Matter 21 395502 (2009);
         "P. Giannozzi et al., J. Phys.:Condens. Matter 29 465901 (2017);
         "P. Giannozzi et al., J. Chem. Phys. 152 154105 (2020);
          URL http://www.quantum-espresso.org", 
     in publications or presentations arising from this work. More details at
     http://www.quantum-espresso.org/quote

     Parallel version (MPI), running on    16 processors

     MPI processes distributed on     1 nodes
     K-points division:     npool     =      16
     104926 MiB available memory on the printing compute node when the environment starts

     Waiting for input...
     Reading input from standard input

     Current dimensions of program PWSCF are:
     Max number of different atomic species (ntypx) = 10
     Max number of k-points (npk) =  40000
     Max angular momentum in pseudopotentials (lmaxx) =  4

     Atomic positions and unit cell read from directory:
     /mnt/ceph/users/sbeck/QE_tmp/lco.save/
     Atomic positions from file used, from input discarded

     Message from routine setup:
     using ibrav=0 with symmetry is DISCOURAGED, use correct ibrav instead

     Subspace diagonalization in iterative solution of the eigenvalue problem:
     a serial algorithm will be used


     G-vector sticks info
     --------------------
     sticks:   dense  smooth     PW     G-vecs:    dense   smooth      PW
     Sum        6687    2223    643               185911    35659    5615

     Using Slab Decomposition



     bravais-lattice index     =            0
     lattice parameter (alat)  =      13.4809  a.u.
     unit-cell volume          =     649.6539 (a.u.)^3
     number of atoms/cell      =            7
     number of atomic types    =            3
     number of electrons       =        65.00
     number of Kohn-Sham states=           40
     kinetic-energy cutoff     =      55.0000  Ry
     charge density cutoff     =     660.0000  Ry
     Exchange-correlation= SLA  PW   PBE  PBE
                           (   1   4   3   4   0   0   0)

     celldm(1)=  13.480858  celldm(2)=   0.000000  celldm(3)=   0.000000
     celldm(4)=   0.000000  celldm(5)=   0.000000  celldm(6)=   0.000000

     crystal axes: (cart. coord. in units of alat)
               a(1) = (  -0.267621   0.267621   0.925612 )  
               a(2) = (   0.267621  -0.267621   0.925612 )  
               a(3) = (   0.267621   0.267621  -0.925612 )  

     reciprocal axes: (cart. coord. in units 2 pi/alat)
               b(1) = ( -0.000000  1.868314  0.540183 )  
               b(2) = (  1.868314 -0.000000  0.540183 )  
               b(3) = (  1.868314  1.868314 -0.000000 )  


     PseudoPot. # 1 for La read from file:
     /mnt/home/sbeck/work/pseudo/gbrv_v1.5/la_pbe_v1.uspp.F.UPF
     MD5 check sum: 5937b0c7494ba0601a847275249473aa
     Pseudo is Ultrasoft + core correction, Zval = 11.0
     Generated by new atomic code, or converted to UPF format
     Using radial grid of  995 points,  8 beta functions with: 
                l(1) =   0
                l(2) =   0
                l(3) =   1
                l(4) =   1
                l(5) =   2
                l(6) =   2
                l(7) =   3
                l(8) =   3
     Q(r) pseudized with  8 coefficients,  rinner =    1.700   1.700   1.700
                                                       1.700   1.700   1.700
                                                       1.700

     PseudoPot. # 2 for Cu read from file:
     /mnt/home/sbeck/work/pseudo/gbrv_v1.5/cu_pbe_v1.2.uspp.F.UPF
     MD5 check sum: 6e991ff952a84172a2a52a1c1e996048
     Pseudo is Ultrasoft + core correction, Zval = 19.0
     Generated by new atomic code, or converted to UPF format
     Using radial grid of  867 points,  6 beta functions with: 
                l(1) =   0
                l(2) =   0
                l(3) =   1
                l(4) =   1
                l(5) =   2
                l(6) =   2
     Q(r) pseudized with  8 coefficients,  rinner =    1.150   1.150   1.150
                                                       1.150   1.150

     PseudoPot. # 3 for O  read from file:
     /mnt/home/sbeck/work/pseudo/gbrv_v1.5/o_pbe_v1.2.uspp.F.UPF
     MD5 check sum: 734c27235a0248c51dbae37a1fbe46ec
     Pseudo is Ultrasoft + core correction, Zval =  6.0
     Generated by new atomic code, or converted to UPF format
     Using radial grid of  737 points,  5 beta functions with: 
                l(1) =   0
                l(2) =   0
                l(3) =   1
                l(4) =   1
                l(5) =   2
     Q(r) pseudized with  8 coefficients,  rinner =    0.900   0.900   0.900
                                                       0.900   0.900

     atomic species   valence    mass     pseudopotential
        La            11.00   138.90500     La( 1.00)
        Cu            19.00    58.69340     Cu( 1.00)
        O              6.00    15.99940     O ( 1.00)

     16 Sym. Ops., with inversion, found



   Cartesian axes

     site n.     atom                  positions (alat units)
         1           La  tau(   1) = (   0.0000000   0.0000000   0.6686911  )
         2           La  tau(   2) = (   0.2676210   0.2676210   0.2569211  )
         3           Cu  tau(   3) = (   0.0000000   0.0000000   0.0000000  )
         4           O   tau(   4) = (   0.0000000   0.2676210   0.0000000  )
         5           O   tau(   5) = (   0.2676210   0.0000000   0.0000000  )
         6           O   tau(   6) = (   0.0000000   0.0000000   0.3437490  )
         7           O   tau(   7) = (   0.2676210   0.2676210   0.5818632  )

     number of k points=   201  Methfessel-Paxton smearing, width (Ry)=  0.0100

     Number of k-points >= 100: set verbosity='high' to print them.

     Dense  grid:   185911 G-vectors     FFT dimensions: ( 120, 120, 120)

     Smooth grid:    35659 G-vectors     FFT dimensions: (  64,  64,  64)

     Estimated max dynamical RAM per process >     273.23 MB

     Estimated total dynamical RAM >       4.27 GB

     Check: negative core charge=   -0.000001

     The potential is recalculated from file :
     /mnt/ceph/users/sbeck/QE_tmp/lco.save/charge-density


     negative rho (up, down):  1.020E-01 0.000E+00
     Starting wfcs are   69 randomized atomic wfcs

     Band Structure Calculation
     Davidson diagonalization with overlap
     c_bands:  3 eigenvalues not converged
     c_bands:  4 eigenvalues not converged
     c_bands:  4 eigenvalues not converged
     c_bands:  3 eigenvalues not converged
     c_bands:  3 eigenvalues not converged
     c_bands:  2 eigenvalues not converged
     c_bands:  3 eigenvalues not converged
     c_bands:  1 eigenvalues not converged
     c_bands:  1 eigenvalues not converged
     c_bands:  1 eigenvalues not converged
     c_bands:  1 eigenvalues not converged
     c_bands:  1 eigenvalues not converged
     c_bands:  1 eigenvalues not converged

     ethr =  1.54E-13,  avg # of iterations =119.9

     total cpu time spent up to now is      160.0 secs

     End of band structure calculation

     Number of k-points >= 100: set verbosity='high' to print the bands.

     Writing all to output data dir /mnt/ceph/users/sbeck/QE_tmp/lco.save/

     init_run     :      3.53s CPU      3.82s WALL (       1 calls)
     electrons    :    154.05s CPU    154.90s WALL (       1 calls)

     Called by init_run:
     wfcinit      :      0.00s CPU      0.02s WALL (       1 calls)
     potinit      :      1.05s CPU      1.24s WALL (       1 calls)
     hinit0       :      2.25s CPU      2.28s WALL (       1 calls)

     Called by electrons:
     c_bands      :    154.05s CPU    154.90s WALL (       1 calls)
     v_of_rho     :      0.88s CPU      0.95s WALL (       1 calls)
     newd         :      0.14s CPU      0.17s WALL (       1 calls)

     Called by c_bands:
     init_us_2    :      0.06s CPU      0.07s WALL (      13 calls)
     init_us_2:cp :      0.06s CPU      0.07s WALL (      13 calls)
     cegterg      :    132.59s CPU    133.24s WALL (      78 calls)

     Called by *egterg:
     cdiaghg      :      2.56s CPU      2.59s WALL (    1573 calls)
     h_psi        :    117.19s CPU    117.76s WALL (    1651 calls)
     s_psi        :      4.02s CPU      4.04s WALL (    1651 calls)
     g_psi        :      0.31s CPU      0.31s WALL (    1560 calls)

     Called by h_psi:
     h_psi:calbec :      3.08s CPU      3.10s WALL (    1651 calls)
     vloc_psi     :    109.76s CPU    110.30s WALL (    1651 calls)
     add_vuspsi   :      4.08s CPU      4.10s WALL (    1651 calls)

     General routines
     calbec       :      3.07s CPU      3.10s WALL (    1651 calls)
     fft          :      0.20s CPU      0.21s WALL (      13 calls)
     ffts         :      0.00s CPU      0.00s WALL (       1 calls)
     fftw         :     91.73s CPU     92.19s WALL (   51834 calls)
     interpolate  :      0.02s CPU      0.02s WALL (       1 calls)
     davcio       :      0.01s CPU      0.13s WALL (      26 calls)

     Parallel routines

     PWSCF        :   2m38.68s CPU   2m42.86s WALL


   This run was terminated on:  13:46:12   3May2022            

=------------------------------------------------------------------------------=
   JOB DONE.
=------------------------------------------------------------------------------=
