
     Program PROJWFC v.7.0 starts on 27Apr2022 at 16:50:12 
        Git branch: HEAD
        Last git commit: bcbb9787c58f17a467653707917172ffc4053dd9
        Last git commit date: Tue Dec 21 10:27:04 2021 +0000
        Last git commit subject: Merge branch pw2gt_cmplx into develop         

     This program is part of the open-source Quantum ESPRESSO suite
     for quantum simulation of materials; please cite
         "P. Giannozzi et al., J. Phys.:Condens. Matter 21 395502 (2009);
         "P. Giannozzi et al., J. Phys.:Condens. Matter 29 465901 (2017);
         "P. Giannozzi et al., J. Chem. Phys. 152 154105 (2020);
          URL http://www.quantum-espresso.org", 
     in publications or presentations arising from this work. More details at
     http://www.quantum-espresso.org/quote

     Parallel version (MPI), running on    16 processors

     MPI processes distributed on     1 nodes
     K-points division:     npool     =      16
     107217 MiB available memory on the printing compute node when the environment starts


     Reading xml data from directory:

     /mnt/ceph/users/sbeck/QE_tmp/lco.save/

     IMPORTANT: XC functional enforced from input :
     Exchange-correlation= PBE
                           (   1   4   3   4   0   0   0)
     Any further DFT definition will be discarded
     Please, verify this is what you really want


     G-vector sticks info
     --------------------
     sticks:   dense  smooth     PW     G-vecs:    dense   smooth      PW
     Sum        6687    2223    643               185911    35659    5615

     Using Slab Decomposition


     Check: negative core charge=   -0.000001

     negative rho (up, down):  1.020E-01 0.000E+00

     Gaussian broadening (read from file): ngauss,degauss=   1    0.010000


     Calling projwave .... 

     Subspace diagonalization in iterative solution of the eigenvalue problem:
     a serial algorithm will be used


  Problem Sizes 
  natomwfc =           69
  nbnd     =           40
  nkstot   =          201
  npwx     =         4502
  nkb      =          134


     Atomic states used for projection
     (read from pseudopotential files):

     state #   1: atom   1 (La ), wfc  1 (l=0 m= 1)
     state #   2: atom   1 (La ), wfc  2 (l=1 m= 1)
     state #   3: atom   1 (La ), wfc  2 (l=1 m= 2)
     state #   4: atom   1 (La ), wfc  2 (l=1 m= 3)
     state #   5: atom   1 (La ), wfc  3 (l=2 m= 1)
     state #   6: atom   1 (La ), wfc  3 (l=2 m= 2)
     state #   7: atom   1 (La ), wfc  3 (l=2 m= 3)
     state #   8: atom   1 (La ), wfc  3 (l=2 m= 4)
     state #   9: atom   1 (La ), wfc  3 (l=2 m= 5)
     state #  10: atom   1 (La ), wfc  4 (l=0 m= 1)
     state #  11: atom   1 (La ), wfc  5 (l=1 m= 1)
     state #  12: atom   1 (La ), wfc  5 (l=1 m= 2)
     state #  13: atom   1 (La ), wfc  5 (l=1 m= 3)
     state #  14: atom   1 (La ), wfc  6 (l=3 m= 1)
     state #  15: atom   1 (La ), wfc  6 (l=3 m= 2)
     state #  16: atom   1 (La ), wfc  6 (l=3 m= 3)
     state #  17: atom   1 (La ), wfc  6 (l=3 m= 4)
     state #  18: atom   1 (La ), wfc  6 (l=3 m= 5)
     state #  19: atom   1 (La ), wfc  6 (l=3 m= 6)
     state #  20: atom   1 (La ), wfc  6 (l=3 m= 7)
     state #  21: atom   2 (La ), wfc  1 (l=0 m= 1)
     state #  22: atom   2 (La ), wfc  2 (l=1 m= 1)
     state #  23: atom   2 (La ), wfc  2 (l=1 m= 2)
     state #  24: atom   2 (La ), wfc  2 (l=1 m= 3)
     state #  25: atom   2 (La ), wfc  3 (l=2 m= 1)
     state #  26: atom   2 (La ), wfc  3 (l=2 m= 2)
     state #  27: atom   2 (La ), wfc  3 (l=2 m= 3)
     state #  28: atom   2 (La ), wfc  3 (l=2 m= 4)
     state #  29: atom   2 (La ), wfc  3 (l=2 m= 5)
     state #  30: atom   2 (La ), wfc  4 (l=0 m= 1)
     state #  31: atom   2 (La ), wfc  5 (l=1 m= 1)
     state #  32: atom   2 (La ), wfc  5 (l=1 m= 2)
     state #  33: atom   2 (La ), wfc  5 (l=1 m= 3)
     state #  34: atom   2 (La ), wfc  6 (l=3 m= 1)
     state #  35: atom   2 (La ), wfc  6 (l=3 m= 2)
     state #  36: atom   2 (La ), wfc  6 (l=3 m= 3)
     state #  37: atom   2 (La ), wfc  6 (l=3 m= 4)
     state #  38: atom   2 (La ), wfc  6 (l=3 m= 5)
     state #  39: atom   2 (La ), wfc  6 (l=3 m= 6)
     state #  40: atom   2 (La ), wfc  6 (l=3 m= 7)
     state #  41: atom   3 (Cu ), wfc  1 (l=0 m= 1)
     state #  42: atom   3 (Cu ), wfc  2 (l=1 m= 1)
     state #  43: atom   3 (Cu ), wfc  2 (l=1 m= 2)
     state #  44: atom   3 (Cu ), wfc  2 (l=1 m= 3)
     state #  45: atom   3 (Cu ), wfc  3 (l=2 m= 1)
     state #  46: atom   3 (Cu ), wfc  3 (l=2 m= 2)
     state #  47: atom   3 (Cu ), wfc  3 (l=2 m= 3)
     state #  48: atom   3 (Cu ), wfc  3 (l=2 m= 4)
     state #  49: atom   3 (Cu ), wfc  3 (l=2 m= 5)
     state #  50: atom   3 (Cu ), wfc  4 (l=0 m= 1)
     state #  51: atom   3 (Cu ), wfc  5 (l=1 m= 1)
     state #  52: atom   3 (Cu ), wfc  5 (l=1 m= 2)
     state #  53: atom   3 (Cu ), wfc  5 (l=1 m= 3)
     state #  54: atom   4 (O  ), wfc  1 (l=0 m= 1)
     state #  55: atom   4 (O  ), wfc  2 (l=1 m= 1)
     state #  56: atom   4 (O  ), wfc  2 (l=1 m= 2)
     state #  57: atom   4 (O  ), wfc  2 (l=1 m= 3)
     state #  58: atom   5 (O  ), wfc  1 (l=0 m= 1)
     state #  59: atom   5 (O  ), wfc  2 (l=1 m= 1)
     state #  60: atom   5 (O  ), wfc  2 (l=1 m= 2)
     state #  61: atom   5 (O  ), wfc  2 (l=1 m= 3)
     state #  62: atom   6 (O  ), wfc  1 (l=0 m= 1)
     state #  63: atom   6 (O  ), wfc  2 (l=1 m= 1)
     state #  64: atom   6 (O  ), wfc  2 (l=1 m= 2)
     state #  65: atom   6 (O  ), wfc  2 (l=1 m= 3)
     state #  66: atom   7 (O  ), wfc  1 (l=0 m= 1)
     state #  67: atom   7 (O  ), wfc  2 (l=1 m= 1)
     state #  68: atom   7 (O  ), wfc  2 (l=1 m= 2)
     state #  69: atom   7 (O  ), wfc  2 (l=1 m= 3)

 k =   0.0000000000  0.0000000000  0.0000000000
==== e(   1) =   -99.71426 eV ==== 
     psi = 0.971*[#  41]+0.008*[#  11]+0.008*[#  31]+0.005*[#  10]+0.005*[#  30]
          +0.002*[#  50]
    |psi|^2 = 1.000
==== e(   2) =   -57.29917 eV ==== 
     psi = 0.997*[#  44]+0.003*[#  57]
    |psi|^2 = 1.000
==== e(   3) =   -57.29917 eV ==== 
     psi = 0.997*[#  43]+0.003*[#  60]
    |psi|^2 = 1.000
==== e(   4) =   -56.75535 eV ==== 
     psi = 0.999*[#  42]
    |psi|^2 = 1.000
==== e(   5) =   -19.26715 eV ==== 
     psi = 0.451*[#   1]+0.451*[#  21]+0.042*[#  10]+0.042*[#  30]+0.004*[#  50]
          +0.002*[#  11]+0.002*[#  31]
    |psi|^2 = 1.000
==== e(   6) =   -19.11084 eV ==== 
     psi = 0.451*[#   1]+0.451*[#  21]+0.026*[#  51]+0.014*[#   5]+0.014*[#  25]
          +0.008*[#  11]+0.008*[#  31]+0.007*[#  10]+0.007*[#  30]+0.003*[#  63]
          +0.003*[#  67]+0.003*[#  55]+0.003*[#  59]
    |psi|^2 = 1.000
==== e(   7) =    -6.91951 eV ==== 
     psi = 0.245*[#  54]+0.245*[#  58]+0.104*[#  11]+0.104*[#  31]+0.076*[#   2]
          +0.076*[#  22]+0.050*[#  50]+0.019*[#  10]+0.019*[#  30]+0.016*[#  62]
          +0.016*[#  66]+0.008*[#  45]+0.004*[#  41]+0.004*[#   5]+0.004*[#  25]
          +0.002*[#   1]+0.002*[#  21]+0.002*[#  63]+0.002*[#  67]
    |psi|^2 = 1.000
==== e(   8) =    -5.13012 eV ==== 
     psi = 0.262*[#  62]+0.262*[#  66]+0.093*[#  10]+0.093*[#  30]+0.062*[#   2]
          +0.062*[#  22]+0.043*[#  54]+0.043*[#  58]+0.018*[#   1]+0.018*[#  21]
          +0.016*[#  50]+0.010*[#  11]+0.010*[#  31]+0.001*[#  63]+0.001*[#  67]
          
    |psi|^2 = 1.000
==== e(   9) =    -5.09852 eV ==== 
     psi = 0.455*[#  54]+0.455*[#  58]+0.043*[#  48]+0.020*[#   8]+0.020*[#  28]
          +0.003*[#  17]+0.003*[#  37]
    |psi|^2 = 0.999
==== e(  10) =    -4.66430 eV ==== 
     psi = 0.352*[#  62]+0.352*[#  66]+0.068*[#   2]+0.068*[#  22]+0.053*[#   5]
          +0.053*[#  25]+0.028*[#  51]+0.006*[#  10]+0.006*[#  30]+0.002*[#  14]
          +0.002*[#  34]+0.001*[#   1]+0.001*[#  21]+0.001*[#  55]+0.001*[#  59]
          +0.001*[#  63]+0.001*[#  67]
    |psi|^2 = 1.000
==== e(  11) =    -2.67971 eV ==== 
     psi = 0.459*[#   3]+0.459*[#  23]+0.028*[#  12]+0.028*[#  32]+0.012*[#  64]
          +0.012*[#  68]
    |psi|^2 = 1.000
==== e(  12) =    -2.67971 eV ==== 
     psi = 0.459*[#   4]+0.459*[#  24]+0.028*[#  13]+0.028*[#  33]+0.012*[#  65]
          +0.012*[#  69]
    |psi|^2 = 1.000
==== e(  13) =    -2.61456 eV ==== 
     psi = 0.458*[#   3]+0.458*[#  23]+0.024*[#  12]+0.024*[#  32]+0.014*[#  56]
          +0.013*[#  52]+0.003*[#  64]+0.003*[#  68]+0.002*[#  60]+0.001*[#   6]
          +0.001*[#  26]
    |psi|^2 = 1.000
==== e(  14) =    -2.61456 eV ==== 
     psi = 0.458*[#   4]+0.458*[#  24]+0.024*[#  13]+0.024*[#  33]+0.014*[#  61]
          +0.013*[#  53]+0.003*[#  65]+0.003*[#  69]+0.002*[#  57]+0.001*[#   7]
          +0.001*[#  27]
    |psi|^2 = 1.000
==== e(  15) =    -2.14422 eV ==== 
     psi = 0.389*[#   2]+0.389*[#  22]+0.065*[#  62]+0.065*[#  66]+0.020*[#  11]
          +0.020*[#  31]+0.010*[#  55]+0.010*[#  59]+0.007*[#  63]+0.007*[#  67]
          +0.006*[#   5]+0.006*[#  25]+0.001*[#  14]+0.001*[#  34]
    |psi|^2 = 1.000
==== e(  16) =    -1.30456 eV ==== 
     psi = 0.320*[#   2]+0.320*[#  22]+0.109*[#  62]+0.109*[#  66]+0.049*[#  54]
          +0.049*[#  58]+0.013*[#  63]+0.013*[#  67]+0.006*[#  45]+0.003*[#  10]
          +0.003*[#  30]+0.001*[#  11]+0.001*[#  31]
    |psi|^2 = 0.999
==== e(  17) =     7.37628 eV ==== 
     psi = 0.473*[#  57]+0.260*[#  61]+0.155*[#  53]+0.037*[#   7]+0.037*[#  27]
          +0.011*[#   4]+0.011*[#  24]+0.004*[#  16]+0.004*[#  36]+0.002*[#  44]
          +0.001*[#  13]+0.001*[#  33]
    |psi|^2 = 0.999
==== e(  18) =     7.37628 eV ==== 
     psi = 0.473*[#  60]+0.260*[#  56]+0.155*[#  52]+0.037*[#   6]+0.037*[#  26]
          +0.011*[#   3]+0.011*[#  23]+0.004*[#  15]+0.004*[#  35]+0.002*[#  43]
          +0.001*[#  12]+0.001*[#  32]
    |psi|^2 = 0.999
==== e(  19) =     7.93654 eV ==== 
     psi = 0.259*[#  55]+0.259*[#  59]+0.131*[#  51]+0.096*[#  63]+0.096*[#  67]
          +0.035*[#  10]+0.035*[#  30]+0.012*[#  14]+0.012*[#  34]+0.012*[#   1]
          +0.012*[#  21]+0.007*[#  62]+0.007*[#  66]+0.005*[#  11]+0.005*[#  31]
          +0.003*[#   2]+0.003*[#   5]+0.003*[#  22]+0.003*[#  25]
    |psi|^2 = 0.998
==== e(  20) =     8.68979 eV ==== 
     psi = 0.259*[#  63]+0.259*[#  67]+0.179*[#  45]+0.103*[#   5]+0.103*[#  25]
          +0.029*[#  50]+0.016*[#   2]+0.016*[#  22]+0.012*[#  11]+0.012*[#  31]
          +0.003*[#  10]+0.003*[#  30]
    |psi|^2 = 0.997
==== e(  21) =     8.83997 eV ==== 
     psi = 0.376*[#  55]+0.376*[#  59]+0.112*[#   8]+0.112*[#  28]+0.010*[#  17]
          +0.010*[#  37]
    |psi|^2 = 0.996
==== e(  22) =     9.78784 eV ==== 
     psi = 0.342*[#  65]+0.342*[#  69]+0.179*[#  47]+0.030*[#   7]+0.030*[#  27]
          +0.014*[#  13]+0.014*[#  33]+0.013*[#  20]+0.013*[#  40]+0.007*[#   4]
          +0.007*[#  24]+0.001*[#  16]+0.001*[#  36]
    |psi|^2 = 0.995
==== e(  23) =     9.78784 eV ==== 
     psi = 0.342*[#  64]+0.342*[#  68]+0.179*[#  46]+0.030*[#   6]+0.030*[#  26]
          +0.014*[#  12]+0.014*[#  32]+0.013*[#  19]+0.013*[#  39]+0.007*[#   3]
          +0.007*[#  23]+0.001*[#  15]+0.001*[#  35]
    |psi|^2 = 0.995
==== e(  24) =     9.81551 eV ==== 
     psi = 0.966*[#  49]+0.006*[#   9]+0.006*[#  29]+0.002*[#  18]+0.002*[#  38]
          
    |psi|^2 = 0.983
==== e(  25) =    10.02147 eV ==== 
     psi = 0.437*[#  61]+0.229*[#  57]+0.115*[#  65]+0.115*[#  69]+0.016*[#   7]
          +0.016*[#  27]+0.016*[#  53]+0.014*[#  16]+0.014*[#  36]+0.010*[#  20]
          +0.010*[#  40]
    |psi|^2 = 0.994
==== e(  26) =    10.02147 eV ==== 
     psi = 0.437*[#  56]+0.229*[#  60]+0.115*[#  64]+0.115*[#  68]+0.016*[#   6]
          +0.016*[#  26]+0.016*[#  52]+0.014*[#  15]+0.014*[#  35]+0.010*[#  19]
          +0.010*[#  39]
    |psi|^2 = 0.994
==== e(  27) =    10.28130 eV ==== 
     psi = 0.785*[#  47]+0.070*[#  65]+0.070*[#  69]+0.031*[#   7]+0.031*[#  27]
          +0.001*[#   4]+0.001*[#  24]
    |psi|^2 = 0.991
==== e(  28) =    10.28130 eV ==== 
     psi = 0.785*[#  46]+0.070*[#  64]+0.070*[#  68]+0.031*[#   6]+0.031*[#  26]
          +0.001*[#   3]+0.001*[#  23]
    |psi|^2 = 0.991
==== e(  29) =    10.74665 eV ==== 
     psi = 0.345*[#  65]+0.345*[#  69]+0.127*[#  57]+0.125*[#  61]+0.008*[#  20]
          +0.008*[#  40]+0.008*[#   7]+0.008*[#  27]+0.003*[#  13]+0.003*[#  33]
          +0.003*[#   4]+0.003*[#  24]+0.003*[#  16]+0.003*[#  36]+0.001*[#  53]
          
    |psi|^2 = 0.995
==== e(  30) =    10.74665 eV ==== 
     psi = 0.345*[#  64]+0.345*[#  68]+0.127*[#  60]+0.125*[#  56]+0.008*[#  19]
          +0.008*[#  39]+0.008*[#   6]+0.008*[#  26]+0.003*[#  12]+0.003*[#  32]
          +0.003*[#   3]+0.003*[#  23]+0.003*[#  15]+0.003*[#  35]+0.001*[#  52]
          
    |psi|^2 = 0.995
==== e(  31) =    10.83757 eV ==== 
     psi = 0.951*[#  48]+0.019*[#  54]+0.019*[#  58]+0.003*[#   8]+0.003*[#  28]
          
    |psi|^2 = 0.995
==== e(  32) =    11.20377 eV ==== 
     psi = 0.329*[#  63]+0.329*[#  67]+0.129*[#  55]+0.129*[#  59]+0.013*[#   2]
          +0.013*[#  22]+0.010*[#   5]+0.010*[#  25]+0.007*[#  11]+0.007*[#  31]
          +0.006*[#  51]+0.006*[#  14]+0.006*[#  34]+0.001*[#  62]+0.001*[#  66]
          
    |psi|^2 = 0.996
==== e(  33) =    11.23543 eV ==== 
     psi = 0.786*[#  45]+0.068*[#  63]+0.068*[#  67]+0.027*[#   5]+0.027*[#  25]
          +0.002*[#  62]+0.002*[#  66]+0.002*[#  54]+0.002*[#  58]+0.002*[#  10]
          +0.002*[#  30]+0.001*[#   2]+0.001*[#  14]+0.001*[#  22]+0.001*[#  34]
          
    |psi|^2 = 0.995
==== e(  34) =    14.30961 eV ==== 
     psi = 0.275*[#   8]+0.275*[#  28]+0.168*[#  17]+0.168*[#  37]+0.045*[#  55]
          +0.045*[#  59]
    |psi|^2 = 0.978
==== e(  35) =    14.90657 eV ==== 
     psi = 0.474*[#   8]+0.474*[#  28]+0.020*[#  54]+0.020*[#  58]+0.002*[#  17]
          +0.002*[#  37]
    |psi|^2 = 0.994
==== e(  36) =    15.41504 eV ==== 
     psi = 0.434*[#  14]+0.434*[#  34]+0.032*[#   5]+0.032*[#  25]+0.011*[#  10]
          +0.011*[#  30]+0.010*[#  63]+0.010*[#  67]+0.008*[#  50]+0.002*[#  62]
          +0.002*[#  66]+0.002*[#  11]+0.002*[#  31]
    |psi|^2 = 0.992
==== e(  37) =    15.89468 eV ==== 
     psi = 0.199*[#  10]+0.199*[#  30]+0.091*[#   5]+0.091*[#  25]+0.073*[#  62]
          +0.073*[#  66]+0.037*[#  11]+0.037*[#  31]+0.035*[#  63]+0.035*[#  67]
          +0.023*[#  50]+0.021*[#   1]+0.021*[#  21]+0.016*[#  54]+0.016*[#  58]
          +0.008*[#   2]+0.008*[#  22]+0.006*[#  45]
    |psi|^2 = 0.990
==== e(  38) =    15.94641 eV ==== 
     psi = 0.493*[#  18]+0.493*[#  38]+0.004*[#   9]+0.004*[#  29]+0.004*[#  49]
          
    |psi|^2 = 0.997
==== e(  39) =    15.96888 eV ==== 
     psi = 0.256*[#  16]+0.256*[#  36]+0.211*[#  20]+0.211*[#  40]+0.020*[#   7]
          +0.020*[#  27]+0.005*[#  15]+0.005*[#  35]+0.004*[#  47]+0.004*[#  19]
          +0.004*[#  39]
    |psi|^2 = 0.997
==== e(  40) =    15.96888 eV ==== 
     psi = 0.256*[#  15]+0.256*[#  35]+0.211*[#  19]+0.211*[#  39]+0.020*[#   6]
          +0.020*[#  26]+0.005*[#  16]+0.005*[#  36]+0.004*[#  46]+0.004*[#  20]
          +0.004*[#  40]
    |psi|^2 = 0.997

 k =   0.0186831380 -0.0000000000  0.0054018301
==== e(   1) =   -99.71426 eV ==== 
     psi = 0.971*[#  41]+0.008*[#  11]+0.008*[#  31]+0.005*[#  10]+0.005*[#  30]
          +0.002*[#  50]
    |psi|^2 = 1.000
==== e(   2) =   -57.29917 eV ==== 
     psi = 0.997*[#  43]+0.003*[#  60]
    |psi|^2 = 1.000
==== e(   3) =   -57.29917 eV ==== 
     psi = 0.997*[#  44]+0.003*[#  57]
    |psi|^2 = 1.000
==== e(   4) =   -56.75535 eV ==== 
     psi = 0.999*[#  42]
    |psi|^2 = 1.000
==== e(   5) =   -19.26704 eV ==== 
     psi = 0.451*[#   1]+0.451*[#  21]+0.042*[#  10]+0.042*[#  30]+0.004*[#  50]
          +0.002*[#  11]+0.002*[#  31]
    |psi|^2 = 1.000
==== e(   6) =   -19.11081 eV ==== 
     psi = 0.451*[#   1]+0.451*[#  21]+0.026*[#  51]+0.014*[#   5]+0.014*[#  25]
          +0.008*[#  11]+0.008*[#  31]+0.007*[#  10]+0.007*[#  30]+0.003*[#  63]
          +0.003*[#  67]+0.003*[#  55]+0.003*[#  59]
    |psi|^2 = 1.000
==== e(   7) =    -6.91903 eV ==== 
     psi = 0.245*[#  54]+0.245*[#  58]+0.104*[#  11]+0.104*[#  31]+0.076*[#   2]
          +0.076*[#  22]+0.050*[#  50]+0.019*[#  10]+0.019*[#  30]+0.016*[#  62]
          +0.016*[#  66]+0.008*[#  45]+0.004*[#  41]+0.004*[#   5]+0.004*[#  25]
          +0.002*[#   1]+0.002*[#  21]+0.002*[#  63]+0.002*[#  67]
    |psi|^2 = 1.000
==== e(   8) =    -5.13083 eV ==== 
     psi = 0.262*[#  62]+0.262*[#  66]+0.093*[#  10]+0.093*[#  30]+0.062*[#   2]
          +0.062*[#  22]+0.050*[#  54]+0.037*[#  58]+0.018*[#   1]+0.018*[#  21]
          +0.016*[#  50]+0.010*[#  11]+0.010*[#  31]+0.001*[#  63]+0.001*[#  67]
          
    |psi|^2 = 1.000
==== e(   9) =    -5.09904 eV ==== 
     psi = 0.461*[#  58]+0.448*[#  54]+0.043*[#  48]+0.020*[#   8]+0.020*[#  28]
          +0.003*[#  17]+0.003*[#  37]
    |psi|^2 = 0.999
==== e(  10) =    -4.66502 eV ==== 
     psi = 0.352*[#  62]+0.352*[#  66]+0.067*[#   2]+0.067*[#  22]+0.053*[#   5]
          +0.053*[#  25]+0.028*[#  51]+0.006*[#  10]+0.006*[#  30]+0.002*[#  14]
          +0.002*[#  34]+0.001*[#   1]+0.001*[#  21]+0.001*[#  55]+0.001*[#  59]
          +0.001*[#  63]+0.001*[#  67]
    |psi|^2 = 1.000
==== e(  11) =    -2.67978 eV ==== 
     psi = 0.458*[#   3]+0.458*[#  23]+0.027*[#  12]+0.027*[#  32]+0.012*[#  64]
          +0.012*[#  68]
    |psi|^2 = 1.000
==== e(  12) =    -2.67963 eV ==== 
     psi = 0.459*[#   4]+0.459*[#  24]+0.028*[#  13]+0.028*[#  33]+0.012*[#  65]
          +0.012*[#  69]
    |psi|^2 = 1.000
==== e(  13) =    -2.61442 eV ==== 
     psi = 0.458*[#   4]+0.458*[#  24]+0.024*[#  13]+0.024*[#  33]+0.014*[#  61]
          +0.013*[#  53]+0.003*[#  65]+0.003*[#  69]+0.002*[#  57]+0.001*[#   7]
          +0.001*[#  27]
    |psi|^2 = 1.000
==== e(  14) =    -2.61361 eV ==== 
     psi = 0.458*[#   3]+0.458*[#  23]+0.024*[#  12]+0.024*[#  32]+0.014*[#  56]
          +0.013*[#  52]+0.003*[#  64]+0.003*[#  68]+0.002*[#  60]+0.001*[#   6]
          +0.001*[#  26]
    |psi|^2 = 1.000
==== e(  15) =    -2.14377 eV ==== 
     psi = 0.389*[#   2]+0.389*[#  22]+0.066*[#  62]+0.066*[#  66]+0.020*[#  11]
          +0.020*[#  31]+0.010*[#  55]+0.010*[#  59]+0.007*[#  63]+0.007*[#  67]
          +0.006*[#   5]+0.006*[#  25]+0.001*[#  14]+0.001*[#  34]
    |psi|^2 = 1.000
==== e(  16) =    -1.30499 eV ==== 
     psi = 0.320*[#   2]+0.320*[#  22]+0.109*[#  62]+0.109*[#  66]+0.049*[#  58]
          +0.049*[#  54]+0.013*[#  63]+0.013*[#  67]+0.006*[#  45]+0.003*[#  10]
          +0.003*[#  30]+0.001*[#  11]+0.001*[#  31]
    |psi|^2 = 0.999
==== e(  17) =     7.37469 eV ==== 
     psi = 0.473*[#  60]+0.259*[#  56]+0.155*[#  52]+0.037*[#   6]+0.037*[#  26]
          +0.011*[#   3]+0.011*[#  23]+0.004*[#  15]+0.004*[#  35]+0.002*[#  43]
          +0.001*[#  12]+0.001*[#  32]
    |psi|^2 = 0.999
==== e(  18) =     7.37647 eV ==== 
     psi = 0.473*[#  57]+0.260*[#  61]+0.155*[#  53]+0.037*[#   7]+0.037*[#  27]
          +0.011*[#   4]+0.011*[#  24]+0.004*[#  16]+0.004*[#  36]+0.002*[#  44]
          +0.001*[#  13]+0.001*[#  33]
    |psi|^2 = 0.999
==== e(  19) =     7.93611 eV ==== 
     psi = 0.259*[#  59]+0.259*[#  55]+0.131*[#  51]+0.096*[#  63]+0.096*[#  67]
          +0.035*[#  10]+0.035*[#  30]+0.012*[#  14]+0.012*[#  34]+0.012*[#   1]
          +0.012*[#  21]+0.007*[#  62]+0.007*[#  66]+0.005*[#  11]+0.005*[#  31]
          +0.003*[#   2]+0.003*[#   5]+0.003*[#  22]+0.003*[#  25]
    |psi|^2 = 0.998
==== e(  20) =     8.69040 eV ==== 
     psi = 0.259*[#  63]+0.259*[#  67]+0.179*[#  45]+0.103*[#   5]+0.103*[#  25]
          +0.029*[#  50]+0.016*[#   2]+0.016*[#  22]+0.012*[#  11]+0.012*[#  31]
          +0.003*[#  10]+0.003*[#  30]
    |psi|^2 = 0.997
==== e(  21) =     8.83948 eV ==== 
     psi = 0.377*[#  55]+0.375*[#  59]+0.112*[#   8]+0.112*[#  28]+0.010*[#  17]
          +0.010*[#  37]
    |psi|^2 = 0.996
==== e(  22) =     9.78703 eV ==== 
     psi = 0.340*[#  65]+0.340*[#  69]+0.178*[#  47]+0.030*[#   7]+0.030*[#  27]
          +0.014*[#  13]+0.014*[#  33]+0.013*[#  20]+0.013*[#  40]+0.007*[#   4]
          +0.007*[#  24]+0.003*[#  49]+0.001*[#  16]+0.001*[#  36]
    |psi|^2 = 0.995
==== e(  23) =     9.78829 eV ==== 
     psi = 0.342*[#  64]+0.342*[#  68]+0.177*[#  46]+0.031*[#   6]+0.031*[#  26]
          +0.014*[#  12]+0.014*[#  32]+0.013*[#  19]+0.013*[#  39]+0.007*[#   3]
          +0.007*[#  23]+0.001*[#  15]+0.001*[#  35]
    |psi|^2 = 0.995
==== e(  24) =     9.80732 eV ==== 
     psi = 0.926*[#  49]+0.017*[#  61]+0.011*[#  57]+0.006*[#   9]+0.006*[#  29]
          +0.004*[#  65]+0.004*[#  69]+0.002*[#  18]+0.002*[#  38]
    |psi|^2 = 0.983
==== e(  25) =    10.01864 eV ==== 
     psi = 0.437*[#  56]+0.228*[#  60]+0.114*[#  64]+0.114*[#  68]+0.016*[#   6]
          +0.016*[#  26]+0.016*[#  52]+0.014*[#  15]+0.014*[#  35]+0.010*[#  19]
          +0.010*[#  39]+0.003*[#  48]
    |psi|^2 = 0.994
==== e(  26) =    10.02911 eV ==== 
     psi = 0.419*[#  61]+0.217*[#  57]+0.113*[#  65]+0.113*[#  69]+0.037*[#  49]
          +0.016*[#   7]+0.016*[#  27]+0.015*[#  53]+0.013*[#  16]+0.013*[#  36]
          +0.010*[#  20]+0.010*[#  40]
    |psi|^2 = 0.993
==== e(  27) =    10.28152 eV ==== 
     psi = 0.784*[#  47]+0.070*[#  65]+0.070*[#  69]+0.031*[#   7]+0.031*[#  27]
          +0.001*[#   4]+0.001*[#  24]
    |psi|^2 = 0.991
==== e(  28) =    10.28189 eV ==== 
     psi = 0.785*[#  46]+0.069*[#  64]+0.069*[#  68]+0.031*[#   6]+0.031*[#  26]
          +0.001*[#   3]+0.001*[#  23]
    |psi|^2 = 0.991
==== e(  29) =    10.73595 eV ==== 
     psi = 0.326*[#  64]+0.326*[#  68]+0.110*[#  56]+0.109*[#  60]+0.071*[#  48]
          +0.008*[#  19]+0.008*[#  39]+0.007*[#   6]+0.007*[#  26]+0.003*[#  12]
          +0.003*[#  32]+0.003*[#   3]+0.003*[#  23]+0.003*[#  15]+0.003*[#  35]
          +0.002*[#  58]+0.001*[#  54]
    |psi|^2 = 0.995
==== e(  30) =    10.74605 eV ==== 
     psi = 0.344*[#  65]+0.344*[#  69]+0.127*[#  57]+0.126*[#  61]+0.008*[#  20]
          +0.008*[#  40]+0.008*[#   7]+0.008*[#  27]+0.003*[#  13]+0.003*[#  33]
          +0.003*[#   4]+0.003*[#  24]+0.003*[#  16]+0.003*[#  36]+0.001*[#  53]
          
    |psi|^2 = 0.995
==== e(  31) =    10.84948 eV ==== 
     psi = 0.877*[#  48]+0.020*[#  64]+0.020*[#  68]+0.018*[#  54]+0.018*[#  60]
          +0.017*[#  58]+0.014*[#  56]+0.003*[#   8]+0.003*[#  28]
    |psi|^2 = 0.995
==== e(  32) =    11.19987 eV ==== 
     psi = 0.304*[#  63]+0.304*[#  67]+0.117*[#  59]+0.117*[#  55]+0.073*[#  45]
          +0.012*[#   2]+0.012*[#  22]+0.012*[#   5]+0.012*[#  25]+0.006*[#  11]
          +0.006*[#  31]+0.006*[#  51]+0.005*[#  14]+0.005*[#  34]+0.002*[#  62]
          +0.002*[#  66]
    |psi|^2 = 0.996
==== e(  33) =    11.24009 eV ==== 
     psi = 0.713*[#  45]+0.093*[#  63]+0.093*[#  67]+0.025*[#   5]+0.025*[#  25]
          +0.012*[#  55]+0.012*[#  59]+0.002*[#   2]+0.002*[#  22]+0.002*[#  62]
          +0.002*[#  66]+0.002*[#  58]+0.002*[#  54]+0.002*[#  10]+0.001*[#  14]
          +0.002*[#  30]+0.001*[#  34]
    |psi|^2 = 0.995
==== e(  34) =    14.31043 eV ==== 
     psi = 0.276*[#   8]+0.276*[#  28]+0.168*[#  17]+0.168*[#  37]+0.045*[#  55]
          +0.045*[#  59]
    |psi|^2 = 0.978
==== e(  35) =    14.90854 eV ==== 
     psi = 0.473*[#   8]+0.473*[#  28]+0.020*[#  54]+0.020*[#  58]+0.003*[#  17]
          +0.003*[#  37]
    |psi|^2 = 0.994
==== e(  36) =    15.41530 eV ==== 
     psi = 0.434*[#  14]+0.434*[#  34]+0.032*[#   5]+0.032*[#  25]+0.011*[#  10]
          +0.011*[#  30]+0.010*[#  63]+0.010*[#  67]+0.008*[#  50]+0.002*[#  62]
          +0.002*[#  66]+0.002*[#  11]+0.002*[#  31]
    |psi|^2 = 0.992
==== e(  37) =    15.89706 eV ==== 
     psi = 0.198*[#  10]+0.198*[#  30]+0.091*[#   5]+0.091*[#  25]+0.072*[#  62]
          +0.072*[#  66]+0.037*[#  11]+0.037*[#  31]+0.035*[#  63]+0.035*[#  67]
          +0.023*[#  50]+0.021*[#   1]+0.021*[#  21]+0.016*[#  54]+0.016*[#  58]
          +0.008*[#   2]+0.008*[#  22]+0.006*[#  45]
    |psi|^2 = 0.990
==== e(  38) =    15.94653 eV ==== 
     psi = 0.493*[#  18]+0.493*[#  38]+0.004*[#   9]+0.004*[#  29]+0.004*[#  49]
          
    |psi|^2 = 0.997
==== e(  39) =    15.96893 eV ==== 
     psi = 0.260*[#  16]+0.260*[#  36]+0.215*[#  20]+0.215*[#  40]+0.020*[#   7]
          +0.020*[#  27]+0.004*[#  47]
    |psi|^2 = 0.997
==== e(  40) =    15.96900 eV ==== 
     psi = 0.261*[#  15]+0.261*[#  35]+0.215*[#  19]+0.215*[#  39]+0.020*[#   6]
          +0.020*[#  26]+0.004*[#  46]
    |psi|^2 = 0.997

 k =   0.0373662759 -0.0000000000  0.0108036602
==== e(   1) =   -99.71426 eV ==== 
     psi = 0.971*[#  41]+0.008*[#  11]+0.008*[#  31]+0.005*[#  10]+0.005*[#  30]
          +0.002*[#  50]
    |psi|^2 = 1.000
==== e(   2) =   -57.29917 eV ==== 
     psi = 0.997*[#  43]+0.003*[#  60]
    |psi|^2 = 1.000
==== e(   3) =   -57.29917 eV ==== 
     psi = 0.997*[#  44]+0.003*[#  57]
    |psi|^2 = 1.000
==== e(   4) =   -56.75535 eV ==== 
     psi = 0.999*[#  42]
    |psi|^2 = 1.000
==== e(   5) =   -19.26674 eV ==== 
     psi = 0.451*[#   1]+0.451*[#  21]+0.041*[#  10]+0.041*[#  30]+0.004*[#  50]
          +0.002*[#  11]+0.002*[#  31]+0.001*[#  12]+0.001*[#  32]
    |psi|^2 = 1.000
==== e(   6) =   -19.11072 eV ==== 
     psi = 0.451*[#   1]+0.451*[#  21]+0.026*[#  51]+0.014*[#   5]+0.014*[#  25]
          +0.008*[#  11]+0.008*[#  31]+0.007*[#  10]+0.007*[#  30]+0.003*[#  63]
          +0.003*[#  67]+0.003*[#  55]+0.003*[#  59]
    |psi|^2 = 1.000
==== e(   7) =    -6.91758 eV ==== 
     psi = 0.245*[#  54]+0.245*[#  58]+0.104*[#  11]+0.104*[#  31]+0.076*[#   2]
          +0.076*[#  22]+0.050*[#  50]+0.019*[#  10]+0.019*[#  30]+0.016*[#  62]
          +0.016*[#  66]+0.008*[#  45]+0.004*[#  41]+0.004*[#   5]+0.004*[#  25]
          +0.002*[#   1]+0.002*[#  21]+0.002*[#  63]+0.002*[#  67]
    |psi|^2 = 1.000
==== e(   8) =    -5.13315 eV ==== 
     psi = 0.260*[#  62]+0.260*[#  66]+0.092*[#  10]+0.092*[#  30]+0.071*[#  54]
          +0.062*[#   2]+0.062*[#  22]+0.022*[#  58]+0.018*[#   1]+0.018*[#  21]
          +0.016*[#  50]+0.010*[#  11]+0.010*[#  31]+0.001*[#  63]+0.001*[#  67]
          
    |psi|^2 = 1.000
==== e(   9) =    -5.10039 eV ==== 
     psi = 0.476*[#  58]+0.426*[#  54]+0.042*[#  48]+0.019*[#   8]+0.019*[#  28]
          +0.003*[#  17]+0.003*[#  37]+0.002*[#  62]+0.002*[#  66]
    |psi|^2 = 0.999
==== e(  10) =    -4.66719 eV ==== 
     psi = 0.351*[#  62]+0.351*[#  66]+0.067*[#   2]+0.067*[#  22]+0.053*[#   5]
          +0.053*[#  25]+0.028*[#  51]+0.006*[#  10]+0.006*[#  30]+0.002*[#  14]
          +0.002*[#  34]+0.001*[#   1]+0.001*[#  21]+0.001*[#  55]+0.001*[#  59]
          +0.001*[#  63]+0.001*[#  67]
    |psi|^2 = 1.000
==== e(  11) =    -2.68001 eV ==== 
     psi = 0.457*[#   3]+0.457*[#  23]+0.027*[#  12]+0.027*[#  32]+0.012*[#  64]
          +0.012*[#  68]+0.002*[#   2]+0.002*[#  22]
    |psi|^2 = 1.000
==== e(  12) =    -2.67942 eV ==== 
     psi = 0.459*[#   4]+0.459*[#  24]+0.028*[#  13]+0.028*[#  33]+0.012*[#  65]
          +0.012*[#  69]
    |psi|^2 = 1.000
==== e(  13) =    -2.61400 eV ==== 
     psi = 0.458*[#   4]+0.458*[#  24]+0.024*[#  13]+0.024*[#  33]+0.014*[#  61]
          +0.012*[#  53]+0.003*[#  65]+0.003*[#  69]+0.002*[#  57]+0.001*[#   7]
          +0.001*[#  27]
    |psi|^2 = 1.000
==== e(  14) =    -2.61080 eV ==== 
     psi = 0.457*[#   3]+0.457*[#  23]+0.023*[#  12]+0.023*[#  32]+0.014*[#  56]
          +0.012*[#  52]+0.003*[#  64]+0.003*[#  68]+0.002*[#  60]+0.001*[#   6]
          +0.001*[#  26]+0.001*[#  54]
    |psi|^2 = 1.000
==== e(  15) =    -2.14242 eV ==== 
     psi = 0.388*[#   2]+0.388*[#  22]+0.066*[#  62]+0.066*[#  66]+0.020*[#  11]
          +0.020*[#  31]+0.010*[#  55]+0.010*[#  59]+0.007*[#  63]+0.007*[#  67]
          +0.006*[#   5]+0.006*[#  25]+0.001*[#  14]+0.001*[#  34]
    |psi|^2 = 1.000
==== e(  16) =    -1.30629 eV ==== 
     psi = 0.320*[#   2]+0.320*[#  22]+0.109*[#  62]+0.109*[#  66]+0.049*[#  58]
          +0.049*[#  54]+0.013*[#  63]+0.013*[#  67]+0.006*[#  45]+0.003*[#  10]
          +0.003*[#  30]+0.001*[#  11]+0.001*[#  31]
    |psi|^2 = 0.999
==== e(  17) =     7.36993 eV ==== 
     psi = 0.473*[#  60]+0.257*[#  56]+0.155*[#  52]+0.037*[#   6]+0.037*[#  26]
          +0.011*[#   3]+0.011*[#  23]+0.004*[#  15]+0.004*[#  35]+0.002*[#  43]
          +0.002*[#  48]+0.001*[#  12]+0.001*[#  32]
    |psi|^2 = 0.999
==== e(  18) =     7.37706 eV ==== 
     psi = 0.473*[#  57]+0.260*[#  61]+0.155*[#  53]+0.037*[#   7]+0.037*[#  27]
          +0.011*[#   4]+0.011*[#  24]+0.004*[#  16]+0.004*[#  36]+0.002*[#  44]
          +0.001*[#  13]+0.001*[#  33]
    |psi|^2 = 0.999
==== e(  19) =     7.93480 eV ==== 
     psi = 0.260*[#  59]+0.257*[#  55]+0.130*[#  51]+0.096*[#  63]+0.096*[#  67]
          +0.035*[#  10]+0.035*[#  30]+0.012*[#  14]+0.012*[#  34]+0.012*[#   1]
          +0.012*[#  21]+0.007*[#  62]+0.007*[#  66]+0.005*[#  11]+0.005*[#  31]
          +0.003*[#   2]+0.003*[#   5]+0.003*[#  22]+0.003*[#  25]
    |psi|^2 = 0.998
==== e(  20) =     8.69218 eV ==== 
     psi = 0.259*[#  63]+0.259*[#  67]+0.179*[#  45]+0.103*[#   5]+0.103*[#  25]
          +0.029*[#  50]+0.015*[#   2]+0.015*[#  22]+0.011*[#  11]+0.011*[#  31]
          +0.003*[#  10]+0.003*[#  30]
    |psi|^2 = 0.997
==== e(  21) =     8.83801 eV ==== 
     psi = 0.378*[#  55]+0.373*[#  59]+0.111*[#   8]+0.111*[#  28]+0.010*[#  17]
          +0.010*[#  37]+0.003*[#  46]
    |psi|^2 = 0.996
==== e(  22) =     9.78088 eV ==== 
     psi = 0.392*[#  49]+0.185*[#  65]+0.185*[#  69]+0.090*[#  47]+0.031*[#  61]
          +0.021*[#  57]+0.018*[#   7]+0.018*[#  27]+0.007*[#  20]+0.007*[#  40]
          +0.007*[#  13]+0.007*[#  33]+0.004*[#   4]+0.004*[#  24]+0.003*[#   9]
          +0.003*[#  29]+0.002*[#  53]+0.001*[#  16]+0.001*[#  36]
    |psi|^2 = 0.990
==== e(  23) =     9.78951 eV ==== 
     psi = 0.459*[#  49]+0.165*[#  65]+0.165*[#  69]+0.087*[#  47]+0.022*[#  61]
          +0.015*[#   7]+0.015*[#  27]+0.014*[#  57]+0.007*[#  13]+0.007*[#  33]
          +0.007*[#  20]+0.007*[#  40]+0.003*[#   4]+0.003*[#   9]+0.003*[#  24]
          +0.003*[#  29]+0.001*[#  16]+0.001*[#  36]+0.001*[#  53]+0.001*[#  18]
          +0.001*[#  38]
    |psi|^2 = 0.989
==== e(  24) =     9.78956 eV ==== 
     psi = 0.342*[#  64]+0.342*[#  68]+0.171*[#  46]+0.031*[#   6]+0.031*[#  26]
          +0.014*[#  12]+0.014*[#  32]+0.013*[#  19]+0.013*[#  39]+0.007*[#   3]
          +0.007*[#  23]+0.002*[#  59]+0.001*[#  15]+0.001*[#  35]+0.001*[#  56]
          
    |psi|^2 = 0.995
==== e(  25) =    10.01040 eV ==== 
     psi = 0.439*[#  56]+0.223*[#  60]+0.110*[#  64]+0.110*[#  68]+0.016*[#   6]
          +0.016*[#  26]+0.015*[#  52]+0.014*[#  15]+0.014*[#  35]+0.010*[#  48]
          +0.010*[#  19]+0.010*[#  39]+0.003*[#  46]
    |psi|^2 = 0.994
==== e(  26) =    10.04903 eV ==== 
     psi = 0.381*[#  61]+0.192*[#  57]+0.113*[#  49]+0.108*[#  65]+0.108*[#  69]
          +0.014*[#   7]+0.014*[#  27]+0.013*[#  53]+0.012*[#  16]+0.012*[#  36]
          +0.009*[#  20]+0.009*[#  40]+0.003*[#  47]
    |psi|^2 = 0.992
==== e(  27) =    10.28217 eV ==== 
     psi = 0.782*[#  47]+0.070*[#  65]+0.070*[#  69]+0.031*[#   7]+0.031*[#  27]
          +0.001*[#   4]+0.001*[#  24]+0.001*[#  61]
    |psi|^2 = 0.991
==== e(  28) =    10.28359 eV ==== 
     psi = 0.785*[#  46]+0.068*[#  64]+0.068*[#  68]+0.031*[#   6]+0.031*[#  26]
          +0.001*[#   3]+0.001*[#  23]+0.001*[#  56]
    |psi|^2 = 0.991
==== e(  29) =    10.71261 eV ==== 
     psi = 0.310*[#  64]+0.310*[#  68]+0.144*[#  48]+0.090*[#  56]+0.085*[#  60]
          +0.008*[#  19]+0.008*[#  39]+0.006*[#   6]+0.006*[#  26]+0.004*[#  58]
          +0.003*[#  12]+0.003*[#  32]+0.003*[#  15]+0.003*[#  35]+0.003*[#   3]
          +0.003*[#  23]+0.002*[#  54]+0.002*[#  45]
    |psi|^2 = 0.995
==== e(  30) =    10.74425 eV ==== 
     psi = 0.342*[#  65]+0.342*[#  69]+0.128*[#  57]+0.128*[#  61]+0.008*[#   7]
          +0.008*[#  20]+0.008*[#  27]+0.008*[#  40]+0.003*[#  13]+0.003*[#  33]
          +0.003*[#   4]+0.003*[#  24]+0.003*[#  16]+0.003*[#  36]+0.001*[#  49]
          +0.001*[#  53]
    |psi|^2 = 0.995
==== e(  31) =    10.87622 eV ==== 
     psi = 0.795*[#  48]+0.042*[#  60]+0.039*[#  64]+0.039*[#  68]+0.033*[#  56]
          +0.017*[#  54]+0.014*[#  58]+0.002*[#   8]+0.002*[#  28]+0.002*[#   6]
          +0.002*[#  26]+0.002*[#  52]+0.001*[#  45]
    |psi|^2 = 0.995
==== e(  32) =    11.19159 eV ==== 
     psi = 0.277*[#  63]+0.277*[#  67]+0.151*[#  45]+0.105*[#  59]+0.105*[#  55]
          +0.013*[#   5]+0.013*[#  25]+0.011*[#   2]+0.011*[#  22]+0.005*[#  11]
          +0.005*[#  31]+0.005*[#  51]+0.005*[#  14]+0.005*[#  34]+0.002*[#  62]
          +0.002*[#  66]+0.001*[#  46]
    |psi|^2 = 0.996
==== e(  33) =    11.25065 eV ==== 
     psi = 0.632*[#  45]+0.119*[#  63]+0.119*[#  67]+0.024*[#  59]+0.024*[#  55]
          +0.023*[#   5]+0.023*[#  25]+0.004*[#   2]+0.004*[#  22]+0.002*[#  62]
          +0.002*[#  66]+0.002*[#  14]+0.002*[#  34]+0.002*[#  58]+0.001*[#  10]
          +0.001*[#  11]+0.001*[#  54]+0.002*[#  60]+0.001*[#  30]+0.001*[#  31]
          +0.001*[#  51]
    |psi|^2 = 0.995
==== e(  34) =    14.31288 eV ==== 
     psi = 0.276*[#   8]+0.276*[#  28]+0.167*[#  17]+0.167*[#  37]+0.045*[#  59]
          +0.045*[#  55]
    |psi|^2 = 0.978
==== e(  35) =    14.91444 eV ==== 
     psi = 0.472*[#   8]+0.472*[#  28]+0.020*[#  58]+0.020*[#  54]+0.003*[#  17]
          +0.003*[#  37]
    |psi|^2 = 0.994
==== e(  36) =    15.41606 eV ==== 
     psi = 0.433*[#  14]+0.433*[#  34]+0.033*[#   5]+0.033*[#  25]+0.011*[#  10]
          +0.011*[#  30]+0.010*[#  63]+0.010*[#  67]+0.008*[#  50]+0.002*[#  62]
          +0.002*[#  66]+0.001*[#  11]+0.001*[#  31]
    |psi|^2 = 0.992
==== e(  37) =    15.90417 eV ==== 
     psi = 0.197*[#  10]+0.197*[#  30]+0.091*[#   5]+0.091*[#  25]+0.072*[#  62]
          +0.072*[#  66]+0.037*[#  11]+0.037*[#  31]+0.035*[#  63]+0.035*[#  67]
          +0.022*[#  50]+0.021*[#   1]+0.021*[#  21]+0.016*[#  58]+0.015*[#  54]
          +0.008*[#   2]+0.008*[#  22]+0.006*[#  45]+0.001*[#  15]+0.001*[#  35]
          
    |psi|^2 = 0.990
==== e(  38) =    15.94688 eV ==== 
     psi = 0.492*[#  18]+0.492*[#  38]+0.004*[#   9]+0.004*[#  29]+0.004*[#  49]
          
    |psi|^2 = 0.997
==== e(  39) =    15.96910 eV ==== 
     psi = 0.260*[#  16]+0.260*[#  36]+0.214*[#  20]+0.214*[#  40]+0.020*[#   7]
          +0.020*[#  27]+0.004*[#  47]+0.001*[#  18]+0.001*[#  38]
    |psi|^2 = 0.997
==== e(  40) =    15.96939 eV ==== 
     psi = 0.261*[#  15]+0.261*[#  35]+0.214*[#  19]+0.214*[#  39]+0.020*[#   6]
          +0.020*[#  26]+0.004*[#  46]
    |psi|^2 = 0.997

 k =   0.0560494139 -0.0000000000  0.0162054902
==== e(   1) =   -99.71426 eV ==== 
     psi = 0.971*[#  41]+0.008*[#  11]+0.008*[#  31]+0.005*[#  10]+0.005*[#  30]
          +0.002*[#  50]
    |psi|^2 = 1.000
==== e(   2) =   -57.29917 eV ==== 
     psi = 0.997*[#  43]+0.003*[#  60]
    |psi|^2 = 1.000
==== e(   3) =   -57.29917 eV ==== 
     psi = 0.997*[#  44]+0.003*[#  57]
    |psi|^2 = 1.000
==== e(   4) =   -56.75535 eV ==== 
     psi = 0.999*[#  42]
    |psi|^2 = 1.000
==== e(   5) =   -19.26624 eV ==== 
     psi = 0.450*[#   1]+0.450*[#  21]+0.040*[#  10]+0.040*[#  30]+0.004*[#  50]
          +0.003*[#  12]+0.003*[#  32]+0.002*[#  11]+0.002*[#  31]
    |psi|^2 = 1.000
==== e(   6) =   -19.11057 eV ==== 
     psi = 0.451*[#   1]+0.451*[#  21]+0.026*[#  51]+0.014*[#   5]+0.014*[#  25]
          +0.008*[#  11]+0.008*[#  31]+0.007*[#  10]+0.007*[#  30]+0.003*[#  63]
          +0.003*[#  67]+0.003*[#  55]+0.003*[#  59]
    |psi|^2 = 1.000
==== e(   7) =    -6.91518 eV ==== 
     psi = 0.245*[#  54]+0.245*[#  58]+0.104*[#  11]+0.104*[#  31]+0.076*[#   2]
          +0.076*[#  22]+0.050*[#  50]+0.019*[#  10]+0.019*[#  30]+0.016*[#  62]
          +0.016*[#  66]+0.008*[#  45]+0.004*[#  41]+0.004*[#   5]+0.004*[#  25]
          +0.003*[#   1]+0.003*[#  21]+0.002*[#  63]+0.002*[#  67]
    |psi|^2 = 1.000
==== e(   8) =    -5.13756 eV ==== 
     psi = 0.252*[#  62]+0.252*[#  66]+0.108*[#  54]+0.090*[#  10]+0.090*[#  30]
          +0.060*[#   2]+0.060*[#  22]+0.017*[#   1]+0.017*[#  21]+0.015*[#  50]
          +0.010*[#  11]+0.010*[#  31]+0.006*[#  58]+0.001*[#   3]+0.001*[#  23]
          +0.001*[#  48]+0.001*[#  63]+0.001*[#  67]
    |psi|^2 = 1.000
==== e(   9) =    -5.10205 eV ==== 
     psi = 0.491*[#  58]+0.388*[#  54]+0.041*[#  48]+0.019*[#   8]+0.019*[#  28]
          +0.009*[#  62]+0.009*[#  66]+0.003*[#  10]+0.003*[#  17]+0.003*[#  30]
          +0.003*[#  37]+0.002*[#   2]+0.002*[#  22]+0.001*[#  52]
    |psi|^2 = 0.999
==== e(  10) =    -4.67079 eV ==== 
     psi = 0.351*[#  62]+0.351*[#  66]+0.067*[#   2]+0.067*[#  22]+0.053*[#   5]
          +0.053*[#  25]+0.028*[#  51]+0.006*[#  10]+0.006*[#  30]+0.002*[#  14]
          +0.002*[#  34]+0.001*[#   1]+0.001*[#   3]+0.001*[#  21]+0.001*[#  23]
          +0.001*[#  55]+0.001*[#  59]+0.001*[#  63]+0.001*[#  67]
    |psi|^2 = 1.000
==== e(  11) =    -2.68036 eV ==== 
     psi = 0.455*[#   3]+0.455*[#  23]+0.027*[#  12]+0.027*[#  32]+0.012*[#  64]
          +0.012*[#  68]+0.003*[#   2]+0.003*[#  22]
    |psi|^2 = 1.000
==== e(  12) =    -2.67905 eV ==== 
     psi = 0.459*[#   4]+0.459*[#  24]+0.027*[#  13]+0.027*[#  33]+0.012*[#  65]
          +0.012*[#  69]
    |psi|^2 = 1.000
==== e(  13) =    -2.61331 eV ==== 
     psi = 0.458*[#   4]+0.458*[#  24]+0.024*[#  13]+0.024*[#  33]+0.014*[#  61]
          +0.012*[#  53]+0.003*[#  65]+0.003*[#  69]+0.002*[#  57]+0.001*[#   7]
          +0.001*[#  27]
    |psi|^2 = 1.000
==== e(  14) =    -2.60621 eV ==== 
     psi = 0.456*[#   3]+0.456*[#  23]+0.023*[#  12]+0.023*[#  32]+0.013*[#  56]
          +0.012*[#  52]+0.003*[#  64]+0.003*[#  68]+0.002*[#  54]+0.002*[#  60]
          
    |psi|^2 = 1.000
==== e(  15) =    -2.14018 eV ==== 
     psi = 0.386*[#   2]+0.386*[#  22]+0.066*[#  62]+0.066*[#  66]+0.020*[#  11]
          +0.020*[#  31]+0.010*[#  55]+0.010*[#  59]+0.007*[#  63]+0.007*[#  67]
          +0.006*[#   5]+0.006*[#  25]+0.002*[#   3]+0.002*[#  23]+0.001*[#  14]
          +0.001*[#  34]
    |psi|^2 = 1.000
==== e(  16) =    -1.30845 eV ==== 
     psi = 0.320*[#   2]+0.320*[#  22]+0.109*[#  62]+0.109*[#  66]+0.049*[#  58]
          +0.048*[#  54]+0.013*[#  63]+0.013*[#  67]+0.006*[#  45]+0.003*[#  10]
          +0.003*[#  30]+0.001*[#  11]+0.001*[#  31]
    |psi|^2 = 0.999
==== e(  17) =     7.36206 eV ==== 
     psi = 0.474*[#  60]+0.255*[#  56]+0.154*[#  52]+0.037*[#   6]+0.037*[#  26]
          +0.011*[#   3]+0.011*[#  23]+0.004*[#  15]+0.004*[#  35]+0.004*[#  48]
          +0.002*[#  43]+0.001*[#  12]+0.001*[#  32]+0.001*[#  50]
    |psi|^2 = 0.999
==== e(  18) =     7.37803 eV ==== 
     psi = 0.472*[#  57]+0.260*[#  61]+0.155*[#  53]+0.037*[#   7]+0.037*[#  27]
          +0.011*[#   4]+0.011*[#  24]+0.004*[#  16]+0.004*[#  36]+0.002*[#  44]
          +0.001*[#  13]+0.001*[#  33]
    |psi|^2 = 0.999
==== e(  19) =     7.93261 eV ==== 
     psi = 0.262*[#  59]+0.255*[#  55]+0.130*[#  51]+0.095*[#  63]+0.095*[#  67]
          +0.035*[#  10]+0.035*[#  30]+0.012*[#  14]+0.012*[#  34]+0.012*[#   1]
          +0.012*[#  21]+0.007*[#  62]+0.007*[#  66]+0.005*[#  11]+0.005*[#  31]
          +0.003*[#   2]+0.003*[#   5]+0.003*[#  22]+0.003*[#  25]+0.002*[#  46]
          +0.001*[#  64]+0.001*[#  68]
    |psi|^2 = 0.998
==== e(  20) =     8.69508 eV ==== 
     psi = 0.258*[#  63]+0.258*[#  67]+0.181*[#  45]+0.103*[#   5]+0.103*[#  25]
          +0.029*[#  50]+0.015*[#   2]+0.015*[#  22]+0.011*[#  11]+0.011*[#  31]
          +0.003*[#  10]+0.003*[#  30]+0.002*[#  60]
    |psi|^2 = 0.997
==== e(  21) =     8.83562 eV ==== 
     psi = 0.379*[#  55]+0.369*[#  59]+0.110*[#   8]+0.110*[#  28]+0.010*[#  17]
          +0.010*[#  37]+0.006*[#  46]
    |psi|^2 = 0.996
==== e(  22) =     9.75256 eV ==== 
     psi = 0.706*[#  49]+0.084*[#  61]+0.058*[#  57]+0.041*[#  65]+0.041*[#  69]
          +0.011*[#  47]+0.006*[#   7]+0.006*[#  27]+0.006*[#   9]+0.006*[#  29]
          +0.005*[#  53]+0.002*[#  20]+0.002*[#  40]+0.002*[#  16]+0.002*[#  36]
          +0.002*[#  18]+0.002*[#  38]
    |psi|^2 = 0.986
==== e(  23) =     9.78403 eV ==== 
     psi = 0.314*[#  65]+0.314*[#  69]+0.166*[#  47]+0.071*[#  49]+0.028*[#   7]
          +0.028*[#  27]+0.013*[#  13]+0.013*[#  33]+0.012*[#  20]+0.012*[#  40]
          +0.007*[#   4]+0.007*[#  24]+0.003*[#  61]+0.002*[#  57]+0.001*[#   9]
          +0.001*[#  16]+0.001*[#  29]+0.001*[#  36]
    |psi|^2 = 0.994
==== e(  24) =     9.79146 eV ==== 
     psi = 0.342*[#  64]+0.342*[#  68]+0.161*[#  46]+0.031*[#   6]+0.031*[#  26]
          +0.014*[#  12]+0.014*[#  32]+0.013*[#  19]+0.013*[#  39]+0.007*[#   3]
          +0.007*[#  23]+0.004*[#  59]+0.003*[#  56]+0.002*[#  60]+0.002*[#  63]
          +0.002*[#  67]+0.001*[#  15]+0.001*[#  35]
    |psi|^2 = 0.995
==== e(  25) =     9.99738 eV ==== 
     psi = 0.440*[#  56]+0.216*[#  60]+0.105*[#  64]+0.105*[#  68]+0.021*[#  48]
          +0.016*[#   6]+0.016*[#  26]+0.014*[#  52]+0.013*[#  15]+0.013*[#  35]
          +0.009*[#  19]+0.009*[#  39]+0.007*[#  46]
    |psi|^2 = 0.994
==== e(  26) =    10.07584 eV ==== 
     psi = 0.342*[#  61]+0.185*[#  49]+0.165*[#  57]+0.106*[#  65]+0.106*[#  69]
          +0.013*[#   7]+0.013*[#  27]+0.012*[#  16]+0.012*[#  36]+0.011*[#  53]
          +0.009*[#  20]+0.009*[#  40]+0.008*[#  47]
    |psi|^2 = 0.991
==== e(  27) =    10.28333 eV ==== 
     psi = 0.778*[#  47]+0.071*[#  65]+0.071*[#  69]+0.031*[#   7]+0.031*[#  27]
          +0.003*[#  61]+0.002*[#  57]+0.001*[#   4]+0.001*[#  24]
    |psi|^2 = 0.991
==== e(  28) =    10.28632 eV ==== 
     psi = 0.784*[#  46]+0.066*[#  64]+0.066*[#  68]+0.030*[#   6]+0.030*[#  26]
          +0.002*[#  56]+0.002*[#  55]+0.001*[#   3]+0.001*[#   8]+0.001*[#  23]
          +0.001*[#  28]+0.001*[#  60]
    |psi|^2 = 0.991
==== e(  29) =    10.68523 eV ==== 
     psi = 0.310*[#  64]+0.310*[#  68]+0.171*[#  48]+0.076*[#  56]+0.068*[#  60]
          +0.008*[#  19]+0.008*[#  39]+0.006*[#   6]+0.006*[#  26]+0.005*[#  58]
          +0.003*[#  15]+0.003*[#  35]+0.003*[#  12]+0.003*[#  32]+0.003*[#   3]
          +0.003*[#  23]+0.003*[#  45]+0.002*[#  54]
    |psi|^2 = 0.995
==== e(  30) =    10.74132 eV ==== 
     psi = 0.339*[#  65]+0.339*[#  69]+0.130*[#  61]+0.130*[#  57]+0.008*[#   7]
          +0.008*[#  27]+0.008*[#  20]+0.008*[#  40]+0.003*[#  13]+0.003*[#  33]
          +0.003*[#   4]+0.003*[#  24]+0.003*[#  49]+0.003*[#  16]+0.003*[#  36]
          +0.001*[#  53]
    |psi|^2 = 0.995
==== e(  31) =    10.90856 eV ==== 
     psi = 0.753*[#  48]+0.060*[#  60]+0.044*[#  56]+0.043*[#  64]+0.043*[#  68]
          +0.018*[#  54]+0.012*[#  58]+0.005*[#  45]+0.002*[#   8]+0.002*[#  28]
          +0.003*[#  52]+0.002*[#   6]+0.002*[#  26]
    |psi|^2 = 0.995
==== e(  32) =    11.18226 eV ==== 
     psi = 0.263*[#  63]+0.263*[#  67]+0.187*[#  45]+0.100*[#  59]+0.099*[#  55]
          +0.014*[#   5]+0.014*[#  25]+0.010*[#   2]+0.010*[#  22]+0.005*[#  11]
          +0.005*[#  31]+0.005*[#  51]+0.004*[#  14]+0.004*[#  34]+0.002*[#  46]
          +0.002*[#  62]+0.002*[#  66]+0.001*[#  10]+0.001*[#  30]+0.001*[#  60]
          
    |psi|^2 = 0.996
==== e(  33) =    11.26403 eV ==== 
     psi = 0.589*[#  45]+0.132*[#  63]+0.132*[#  67]+0.030*[#  59]+0.030*[#  55]
          +0.022*[#   5]+0.022*[#  25]+0.004*[#   2]+0.004*[#  22]+0.003*[#  60]
          +0.002*[#  14]+0.002*[#  34]+0.002*[#  62]+0.002*[#  66]+0.002*[#  58]
          +0.002*[#  11]+0.002*[#  31]+0.002*[#  51]+0.001*[#  10]+0.001*[#  30]
          +0.001*[#  48]+0.001*[#  54]
    |psi|^2 = 0.995
==== e(  34) =    14.31699 eV ==== 
     psi = 0.276*[#   8]+0.276*[#  28]+0.166*[#  17]+0.166*[#  37]+0.044*[#  59]
          +0.044*[#  55]+0.001*[#  19]+0.001*[#  39]
    |psi|^2 = 0.979
==== e(  35) =    14.92417 eV ==== 
     psi = 0.469*[#   8]+0.469*[#  28]+0.020*[#  58]+0.020*[#  54]+0.004*[#  17]
          +0.004*[#  37]+0.002*[#  19]+0.002*[#  39]
    |psi|^2 = 0.994
==== e(  36) =    15.41729 eV ==== 
     psi = 0.433*[#  14]+0.433*[#  34]+0.034*[#   5]+0.034*[#  25]+0.010*[#  63]
          +0.010*[#  67]+0.010*[#  10]+0.010*[#  30]+0.008*[#  50]+0.002*[#  62]
          +0.002*[#  66]+0.001*[#  11]+0.001*[#  31]
    |psi|^2 = 0.992
==== e(  37) =    15.91585 eV ==== 
     psi = 0.194*[#  10]+0.194*[#  30]+0.090*[#   5]+0.090*[#  25]+0.072*[#  62]
          +0.072*[#  66]+0.037*[#  11]+0.037*[#  31]+0.035*[#  63]+0.035*[#  67]
          +0.022*[#  50]+0.021*[#   1]+0.021*[#  21]+0.015*[#  58]+0.015*[#  54]
          +0.008*[#   2]+0.008*[#  22]+0.005*[#  45]+0.004*[#  15]+0.004*[#  35]
          +0.002*[#  12]+0.002*[#  32]+0.001*[#  64]+0.001*[#  68]
    |psi|^2 = 0.990
==== e(  38) =    15.94745 eV ==== 
     psi = 0.491*[#  18]+0.491*[#  38]+0.004*[#   9]+0.004*[#  29]+0.004*[#  49]
          +0.001*[#  20]+0.001*[#  40]
    |psi|^2 = 0.997
==== e(  39) =    15.96933 eV ==== 
     psi = 0.259*[#  16]+0.259*[#  36]+0.214*[#  20]+0.214*[#  40]+0.020*[#   7]
          +0.020*[#  27]+0.004*[#  47]+0.003*[#  18]+0.003*[#  38]
    |psi|^2 = 0.997
==== e(  40) =    15.97000 eV ==== 
     psi = 0.261*[#  15]+0.261*[#  35]+0.214*[#  19]+0.214*[#  39]+0.020*[#   6]
          +0.020*[#  26]+0.004*[#  46]
    |psi|^2 = 0.997

 k =   0.0747325518 -0.0000000000  0.0216073203
==== e(   1) =   -99.71426 eV ==== 
     psi = 0.971*[#  41]+0.008*[#  11]+0.008*[#  31]+0.005*[#  10]+0.005*[#  30]
          +0.002*[#  50]
    |psi|^2 = 1.000
==== e(   2) =   -57.29917 eV ==== 
     psi = 0.997*[#  43]+0.003*[#  60]
    |psi|^2 = 1.000
==== e(   3) =   -57.29917 eV ==== 
     psi = 0.997*[#  44]+0.003*[#  57]
    |psi|^2 = 1.000
==== e(   4) =   -56.75535 eV ==== 
     psi = 0.999*[#  42]
    |psi|^2 = 1.000
==== e(   5) =   -19.26555 eV ==== 
     psi = 0.448*[#   1]+0.448*[#  21]+0.039*[#  10]+0.039*[#  30]+0.006*[#  12]
          +0.006*[#  32]+0.004*[#  50]+0.003*[#  11]+0.003*[#  31]
    |psi|^2 = 1.000
==== e(   6) =   -19.11037 eV ==== 
     psi = 0.451*[#   1]+0.451*[#  21]+0.025*[#  51]+0.014*[#   5]+0.014*[#  25]
          +0.008*[#  11]+0.008*[#  31]+0.007*[#  10]+0.007*[#  30]+0.003*[#  63]
          +0.003*[#  67]+0.003*[#  55]+0.003*[#  59]+0.001*[#  12]+0.001*[#  32]
          
    |psi|^2 = 1.000
==== e(   7) =    -6.91183 eV ==== 
     psi = 0.246*[#  54]+0.245*[#  58]+0.103*[#  11]+0.103*[#  31]+0.076*[#   2]
          +0.076*[#  22]+0.049*[#  50]+0.019*[#  10]+0.019*[#  30]+0.016*[#  62]
          +0.016*[#  66]+0.008*[#  45]+0.004*[#  41]+0.004*[#   5]+0.004*[#  25]
          +0.003*[#   1]+0.003*[#  21]+0.002*[#  63]+0.002*[#  67]+0.001*[#  52]
          
    |psi|^2 = 1.000
==== e(   8) =    -5.14460 eV ==== 
     psi = 0.238*[#  62]+0.238*[#  66]+0.154*[#  54]+0.084*[#  10]+0.084*[#  30]
          +0.057*[#   2]+0.057*[#  22]+0.016*[#   1]+0.016*[#  21]+0.014*[#  50]
          +0.010*[#  11]+0.010*[#  31]+0.004*[#  48]+0.003*[#   3]+0.003*[#  23]
          +0.002*[#   8]+0.002*[#  28]+0.001*[#  63]+0.001*[#  67]
    |psi|^2 = 1.000
==== e(   9) =    -5.10343 eV ==== 
     psi = 0.496*[#  58]+0.340*[#  54]+0.039*[#  48]+0.023*[#  62]+0.023*[#  66]
          +0.018*[#   8]+0.018*[#  28]+0.008*[#  10]+0.008*[#  30]+0.005*[#   2]
          +0.005*[#  22]+0.003*[#  17]+0.003*[#  37]+0.002*[#   1]+0.002*[#  21]
          +0.002*[#  52]+0.001*[#  50]
    |psi|^2 = 0.999
==== e(  10) =    -4.67580 eV ==== 
     psi = 0.350*[#  62]+0.350*[#  66]+0.067*[#   2]+0.067*[#  22]+0.053*[#   5]
          +0.053*[#  25]+0.028*[#  51]+0.006*[#  10]+0.006*[#  30]+0.003*[#   3]
          +0.003*[#  23]+0.002*[#  14]+0.002*[#  34]+0.001*[#   1]+0.001*[#  21]
          +0.002*[#  55]+0.001*[#  59]+0.001*[#  63]+0.001*[#  67]
    |psi|^2 = 1.000
==== e(  11) =    -2.68080 eV ==== 
     psi = 0.453*[#   3]+0.453*[#  23]+0.026*[#  12]+0.026*[#  32]+0.011*[#  64]
          +0.011*[#  68]+0.006*[#   2]+0.006*[#  22]
    |psi|^2 = 1.000
==== e(  12) =    -2.67855 eV ==== 
     psi = 0.459*[#   4]+0.459*[#  24]+0.027*[#  13]+0.027*[#  33]+0.012*[#  65]
          +0.012*[#  69]
    |psi|^2 = 1.000
==== e(  13) =    -2.61235 eV ==== 
     psi = 0.458*[#   4]+0.458*[#  24]+0.024*[#  13]+0.024*[#  33]+0.013*[#  61]
          +0.012*[#  53]+0.003*[#  65]+0.003*[#  69]+0.002*[#  57]+0.001*[#   7]
          +0.001*[#  27]
    |psi|^2 = 1.000
==== e(  14) =    -2.59996 eV ==== 
     psi = 0.456*[#   3]+0.456*[#  23]+0.022*[#  12]+0.022*[#  32]+0.013*[#  56]
          +0.012*[#  52]+0.004*[#  54]+0.003*[#  64]+0.003*[#  68]+0.002*[#  60]
          
    |psi|^2 = 1.000
==== e(  15) =    -2.13703 eV ==== 
     psi = 0.383*[#   2]+0.383*[#  22]+0.067*[#  62]+0.067*[#  66]+0.020*[#  11]
          +0.020*[#  31]+0.010*[#  55]+0.009*[#  59]+0.007*[#  63]+0.007*[#  67]
          +0.006*[#   5]+0.006*[#  25]+0.004*[#   3]+0.004*[#  23]+0.001*[#  14]
          +0.001*[#  34]
    |psi|^2 = 1.000
==== e(  16) =    -1.31144 eV ==== 
     psi = 0.320*[#   2]+0.320*[#  22]+0.109*[#  62]+0.109*[#  66]+0.050*[#  58]
          +0.048*[#  54]+0.013*[#  63]+0.013*[#  67]+0.006*[#  45]+0.003*[#  10]
          +0.003*[#  30]+0.001*[#  11]+0.001*[#  31]
    |psi|^2 = 0.999
==== e(  17) =     7.35113 eV ==== 
     psi = 0.474*[#  60]+0.251*[#  56]+0.152*[#  52]+0.036*[#   6]+0.036*[#  26]
          +0.011*[#   3]+0.011*[#  23]+0.006*[#  48]+0.004*[#  15]+0.004*[#  35]
          +0.002*[#  50]+0.002*[#  43]+0.001*[#  12]+0.001*[#  32]+0.001*[#  63]
          +0.001*[#  67]
    |psi|^2 = 0.999
==== e(  18) =     7.37939 eV ==== 
     psi = 0.472*[#  57]+0.260*[#  61]+0.155*[#  53]+0.037*[#   7]+0.037*[#  27]
          +0.011*[#   4]+0.011*[#  24]+0.004*[#  16]+0.004*[#  36]+0.002*[#  44]
          +0.001*[#  49]+0.001*[#  13]+0.001*[#  33]
    |psi|^2 = 0.999
==== e(  19) =     7.92955 eV ==== 
     psi = 0.263*[#  59]+0.251*[#  55]+0.128*[#  51]+0.094*[#  63]+0.094*[#  67]
          +0.035*[#  10]+0.035*[#  30]+0.012*[#  14]+0.012*[#  34]+0.012*[#   1]
          +0.012*[#  21]+0.007*[#  62]+0.007*[#  66]+0.005*[#  11]+0.005*[#  31]
          +0.003*[#   2]+0.003*[#   5]+0.003*[#  22]+0.003*[#  25]+0.003*[#  46]
          +0.002*[#  64]+0.002*[#  68]+0.001*[#   6]+0.001*[#  26]
    |psi|^2 = 0.998
==== e(  20) =     8.69900 eV ==== 
     psi = 0.257*[#  63]+0.257*[#  67]+0.182*[#  45]+0.102*[#   5]+0.102*[#  25]
          +0.028*[#  50]+0.015*[#   2]+0.015*[#  22]+0.011*[#  11]+0.011*[#  31]
          +0.004*[#  60]+0.003*[#  10]+0.003*[#  30]
    |psi|^2 = 0.997
==== e(  21) =     8.83235 eV ==== 
     psi = 0.382*[#  55]+0.363*[#  59]+0.109*[#   8]+0.109*[#  28]+0.010*[#  46]
          +0.010*[#  17]+0.010*[#  37]
    |psi|^2 = 0.996
==== e(  22) =     9.71688 eV ==== 
     psi = 0.673*[#  49]+0.112*[#  61]+0.079*[#  57]+0.034*[#  65]+0.034*[#  69]
          +0.007*[#  53]+0.006*[#   7]+0.006*[#  27]+0.006*[#   9]+0.006*[#  29]
          +0.005*[#  47]+0.003*[#  16]+0.003*[#  36]+0.002*[#  20]+0.002*[#  40]
          +0.002*[#  18]+0.002*[#  38]
    |psi|^2 = 0.986
==== e(  23) =     9.77986 eV ==== 
     psi = 0.324*[#  65]+0.324*[#  69]+0.172*[#  47]+0.043*[#  49]+0.028*[#   7]
          +0.028*[#  27]+0.013*[#  13]+0.013*[#  33]+0.012*[#  20]+0.012*[#  40]
          +0.007*[#   4]+0.007*[#  24]+0.002*[#   9]+0.002*[#  29]+0.001*[#  61]
          +0.001*[#  16]+0.001*[#  36]
    |psi|^2 = 0.994
==== e(  24) =     9.79361 eV ==== 
     psi = 0.341*[#  64]+0.341*[#  68]+0.148*[#  46]+0.032*[#   6]+0.032*[#  26]
          +0.013*[#  12]+0.013*[#  32]+0.013*[#  19]+0.013*[#  39]+0.008*[#  56]
          +0.007*[#   3]+0.007*[#  23]+0.007*[#  59]+0.005*[#  60]+0.004*[#  63]
          +0.004*[#  67]+0.002*[#  51]+0.001*[#  15]+0.001*[#  35]
    |psi|^2 = 0.995
==== e(  25) =     9.98061 eV ==== 
     psi = 0.441*[#  56]+0.207*[#  60]+0.099*[#  64]+0.099*[#  68]+0.034*[#  48]
          +0.016*[#   6]+0.016*[#  26]+0.013*[#  15]+0.013*[#  35]+0.012*[#  46]
          +0.013*[#  52]+0.009*[#  19]+0.009*[#  39]+0.002*[#  58]+0.001*[#  50]
          +0.001*[#  63]+0.001*[#  67]
    |psi|^2 = 0.994
==== e(  26) =    10.10561 eV ==== 
     psi = 0.307*[#  61]+0.241*[#  49]+0.141*[#  57]+0.106*[#  65]+0.106*[#  69]
          +0.016*[#  47]+0.011*[#   7]+0.011*[#  27]+0.011*[#  16]+0.011*[#  36]
          +0.010*[#  53]+0.008*[#  20]+0.008*[#  40]
    |psi|^2 = 0.991
==== e(  27) =    10.28518 eV ==== 
     psi = 0.769*[#  47]+0.071*[#  65]+0.071*[#  69]+0.031*[#   7]+0.031*[#  27]
          +0.007*[#  61]+0.003*[#  57]+0.002*[#  49]+0.001*[#   4]+0.001*[#  24]
          
    |psi|^2 = 0.991
==== e(  28) =    10.28996 eV ==== 
     psi = 0.784*[#  46]+0.064*[#  64]+0.064*[#  68]+0.029*[#   6]+0.029*[#  26]
          +0.004*[#  55]+0.004*[#  56]+0.002*[#   8]+0.002*[#  28]+0.002*[#  60]
          +0.001*[#   3]+0.001*[#  23]+0.001*[#  63]+0.001*[#  67]
    |psi|^2 = 0.991
==== e(  29) =    10.65649 eV ==== 
     psi = 0.318*[#  64]+0.318*[#  68]+0.172*[#  48]+0.065*[#  56]+0.055*[#  60]
          +0.009*[#  19]+0.009*[#  39]+0.006*[#  58]+0.005*[#   6]+0.005*[#  26]
          +0.003*[#  15]+0.003*[#  35]+0.004*[#  45]+0.003*[#  12]+0.003*[#  32]
          +0.002*[#   3]+0.002*[#  23]+0.002*[#  54]+0.002*[#  46]+0.002*[#  10]
          +0.002*[#  30]
    |psi|^2 = 0.995
==== e(  30) =    10.73738 eV ==== 
     psi = 0.333*[#  65]+0.333*[#  69]+0.134*[#  61]+0.132*[#  57]+0.009*[#   7]
          +0.009*[#  27]+0.008*[#  20]+0.008*[#  40]+0.006*[#  49]+0.003*[#  13]
          +0.003*[#  33]+0.003*[#   4]+0.003*[#  24]+0.002*[#  16]+0.002*[#  36]
          +0.002*[#   9]+0.002*[#  29]+0.001*[#  53]+0.001*[#  47]
    |psi|^2 = 0.995
==== e(  31) =    10.94290 eV ==== 
     psi = 0.731*[#  48]+0.072*[#  60]+0.050*[#  56]+0.039*[#  64]+0.039*[#  68]
          +0.019*[#  54]+0.014*[#  45]+0.011*[#  58]+0.003*[#  52]+0.002*[#   6]
          +0.002*[#   8]+0.002*[#  26]+0.002*[#  28]
    |psi|^2 = 0.995
==== e(  32) =    11.17305 eV ==== 
     psi = 0.256*[#  63]+0.256*[#  67]+0.197*[#  45]+0.099*[#  59]+0.096*[#  55]
          +0.015*[#   5]+0.015*[#  25]+0.010*[#   2]+0.010*[#  22]+0.005*[#  11]
          +0.005*[#  31]+0.005*[#  51]+0.004*[#  14]+0.004*[#  34]+0.004*[#  46]
          +0.002*[#  48]+0.002*[#  60]+0.002*[#  62]+0.002*[#  66]+0.001*[#  10]
          +0.001*[#  30]
    |psi|^2 = 0.995
==== e(  33) =    11.27951 eV ==== 
     psi = 0.567*[#  45]+0.137*[#  63]+0.137*[#  67]+0.032*[#  59]+0.032*[#  55]
          +0.021*[#   5]+0.021*[#  25]+0.006*[#  60]+0.004*[#   2]+0.004*[#  22]
          +0.004*[#  48]+0.002*[#  14]+0.002*[#  34]+0.002*[#  58]+0.002*[#  62]
          +0.002*[#  66]+0.002*[#  11]+0.002*[#  31]+0.002*[#  56]+0.002*[#  51]
          +0.002*[#  64]+0.002*[#  68]+0.001*[#  10]+0.001*[#  30]
    |psi|^2 = 0.995
==== e(  34) =    14.32282 eV ==== 
     psi = 0.277*[#   8]+0.277*[#  28]+0.165*[#  17]+0.165*[#  37]+0.044*[#  59]
          +0.043*[#  55]+0.002*[#  19]+0.002*[#  39]+0.001*[#  64]+0.001*[#  68]
          
    |psi|^2 = 0.979
==== e(  35) =    14.93762 eV ==== 
     psi = 0.466*[#   8]+0.466*[#  28]+0.020*[#  58]+0.019*[#  54]+0.006*[#  17]
          +0.006*[#  37]+0.004*[#  19]+0.004*[#  39]
    |psi|^2 = 0.994
==== e(  36) =    15.41892 eV ==== 
     psi = 0.432*[#  14]+0.432*[#  34]+0.035*[#   5]+0.035*[#  25]+0.011*[#  63]
          +0.011*[#  67]+0.009*[#  10]+0.009*[#  30]+0.008*[#  50]+0.001*[#  62]
          +0.001*[#  66]+0.001*[#  11]+0.001*[#  31]
    |psi|^2 = 0.992
==== e(  37) =    15.93181 eV ==== 
     psi = 0.190*[#  10]+0.190*[#  30]+0.089*[#   5]+0.089*[#  25]+0.070*[#  62]
          +0.070*[#  66]+0.037*[#  11]+0.037*[#  31]+0.034*[#  63]+0.034*[#  67]
          +0.021*[#   1]+0.021*[#  21]+0.021*[#  50]+0.015*[#  58]+0.014*[#  54]
          +0.008*[#   2]+0.008*[#  22]+0.007*[#  15]+0.007*[#  35]+0.005*[#  45]
          +0.003*[#  12]+0.003*[#  32]+0.002*[#  64]+0.002*[#  68]+0.002*[#  14]
          +0.002*[#  34]+0.002*[#  19]+0.002*[#  39]+0.001*[#  56]
    |psi|^2 = 0.990
==== e(  38) =    15.94824 eV ==== 
     psi = 0.490*[#  18]+0.490*[#  38]+0.004*[#   9]+0.004*[#  29]+0.004*[#  49]
          +0.003*[#  20]+0.003*[#  40]
    |psi|^2 = 0.997
==== e(  39) =    15.96964 eV ==== 
     psi = 0.258*[#  16]+0.258*[#  36]+0.213*[#  20]+0.213*[#  40]+0.020*[#   7]
          +0.020*[#  27]+0.005*[#  18]+0.005*[#  38]+0.004*[#  47]
    |psi|^2 = 0.997
==== e(  40) =    15.97089 eV ==== 
     psi = 0.261*[#  15]+0.261*[#  35]+0.212*[#  19]+0.212*[#  39]+0.020*[#   6]
          +0.020*[#  26]+0.004*[#  46]
    |psi|^2 = 0.997

 k =   0.0934156898 -0.0000000000  0.0270091504
==== e(   1) =   -99.71426 eV ==== 
     psi = 0.971*[#  41]+0.008*[#  11]+0.008*[#  31]+0.005*[#  10]+0.005*[#  30]
          +0.002*[#  50]
    |psi|^2 = 1.000
==== e(   2) =   -57.29917 eV ==== 
     psi = 0.997*[#  43]+0.003*[#  60]
    |psi|^2 = 1.000
==== e(   3) =   -57.29917 eV ==== 
     psi = 0.997*[#  44]+0.003*[#  57]
    |psi|^2 = 1.000
==== e(   4) =   -56.75535 eV ==== 
     psi = 0.999*[#  42]
    |psi|^2 = 1.000
==== e(   5) =   -19.26465 eV ==== 
     psi = 0.447*[#   1]+0.447*[#  21]+0.037*[#  10]+0.037*[#  30]+0.009*[#  12]
          +0.009*[#  32]+0.004*[#  50]+0.003*[#  11]+0.003*[#  31]
    |psi|^2 = 1.000
==== e(   6) =   -19.11011 eV ==== 
     psi = 0.450*[#   1]+0.450*[#  21]+0.025*[#  51]+0.014*[#   5]+0.014*[#  25]
          +0.008*[#  11]+0.008*[#  31]+0.007*[#  10]+0.007*[#  30]+0.003*[#  63]
          +0.003*[#  67]+0.003*[#  59]+0.003*[#  55]+0.002*[#  12]+0.002*[#  32]
          
    |psi|^2 = 1.000
==== e(   7) =    -6.90754 eV ==== 
     psi = 0.246*[#  54]+0.245*[#  58]+0.102*[#  11]+0.102*[#  31]+0.076*[#   2]
          +0.076*[#  22]+0.049*[#  50]+0.019*[#  10]+0.019*[#  30]+0.016*[#  62]
          +0.016*[#  66]+0.008*[#  45]+0.004*[#  41]+0.003*[#   5]+0.003*[#  25]
          +0.003*[#   1]+0.003*[#  21]+0.002*[#  52]+0.002*[#  63]+0.002*[#  67]
          
    |psi|^2 = 1.000
==== e(   8) =    -5.15455 eV ==== 
     psi = 0.221*[#  62]+0.221*[#  66]+0.199*[#  54]+0.078*[#  10]+0.078*[#  30]
          +0.054*[#   2]+0.054*[#  22]+0.015*[#   1]+0.015*[#  21]+0.013*[#  50]
          +0.009*[#  11]+0.009*[#  31]+0.006*[#  48]+0.005*[#  58]+0.004*[#   3]
          +0.004*[#  23]+0.003*[#   8]+0.003*[#  28]+0.001*[#  63]+0.001*[#  67]
          
    |psi|^2 = 0.999
==== e(   9) =    -5.10418 eV ==== 
     psi = 0.491*[#  58]+0.293*[#  54]+0.040*[#  62]+0.040*[#  66]+0.036*[#  48]
          +0.017*[#   8]+0.017*[#  28]+0.013*[#  10]+0.013*[#  30]+0.009*[#   2]
          +0.009*[#  22]+0.003*[#   1]+0.003*[#  17]+0.003*[#  21]+0.003*[#  37]
          +0.002*[#  52]+0.002*[#  50]+0.002*[#  11]+0.002*[#  31]
    |psi|^2 = 0.999
==== e(  10) =    -4.68218 eV ==== 
     psi = 0.349*[#  62]+0.349*[#  66]+0.066*[#   2]+0.066*[#  22]+0.053*[#   5]
          +0.053*[#  25]+0.028*[#  51]+0.006*[#  10]+0.006*[#  30]+0.004*[#   3]
          +0.004*[#  23]+0.002*[#  14]+0.002*[#  34]+0.002*[#  55]+0.001*[#   1]
          +0.001*[#  21]+0.001*[#  59]+0.001*[#  63]+0.001*[#  67]
    |psi|^2 = 1.000
==== e(  11) =    -2.68132 eV ==== 
     psi = 0.449*[#   3]+0.449*[#  23]+0.025*[#  12]+0.025*[#  32]+0.011*[#  64]
          +0.011*[#  68]+0.010*[#   2]+0.010*[#  22]+0.001*[#  62]+0.001*[#  66]
          
    |psi|^2 = 1.000
==== e(  12) =    -2.67789 eV ==== 
     psi = 0.459*[#   4]+0.459*[#  24]+0.027*[#  13]+0.027*[#  33]+0.012*[#  65]
          +0.012*[#  69]
    |psi|^2 = 1.000
==== e(  13) =    -2.61112 eV ==== 
     psi = 0.459*[#   4]+0.459*[#  24]+0.024*[#  13]+0.024*[#  33]+0.013*[#  61]
          +0.012*[#  53]+0.003*[#  65]+0.003*[#  69]+0.002*[#  57]+0.001*[#   7]
          +0.001*[#  27]
    |psi|^2 = 1.000
==== e(  14) =    -2.59218 eV ==== 
     psi = 0.454*[#   3]+0.454*[#  23]+0.022*[#  12]+0.022*[#  32]+0.013*[#  56]
          +0.011*[#  52]+0.006*[#  54]+0.003*[#  64]+0.003*[#  68]+0.002*[#  60]
          +0.001*[#   2]+0.001*[#  22]+0.001*[#  62]+0.001*[#  66]
    |psi|^2 = 1.000
==== e(  15) =    -2.13297 eV ==== 
     psi = 0.380*[#   2]+0.380*[#  22]+0.068*[#  62]+0.068*[#  66]+0.020*[#  11]
          +0.020*[#  31]+0.010*[#  55]+0.009*[#  59]+0.007*[#  63]+0.007*[#  67]
          +0.006*[#   5]+0.006*[#  25]+0.006*[#   3]+0.006*[#  23]+0.001*[#  14]
          +0.001*[#  34]
    |psi|^2 = 1.000
==== e(  16) =    -1.31523 eV ==== 
     psi = 0.319*[#   2]+0.319*[#  22]+0.109*[#  62]+0.109*[#  66]+0.050*[#  58]
          +0.047*[#  54]+0.013*[#  63]+0.013*[#  67]+0.006*[#  45]+0.003*[#  10]
          +0.003*[#  30]+0.001*[#  11]+0.001*[#  31]
    |psi|^2 = 0.999
==== e(  17) =     7.33729 eV ==== 
     psi = 0.475*[#  60]+0.246*[#  56]+0.150*[#  52]+0.036*[#   6]+0.036*[#  26]
          +0.011*[#   3]+0.011*[#  23]+0.010*[#  48]+0.004*[#  15]+0.004*[#  35]
          +0.003*[#  50]+0.002*[#  43]+0.002*[#  63]+0.002*[#  67]+0.001*[#  12]
          +0.001*[#  32]+0.001*[#   5]+0.001*[#  25]
    |psi|^2 = 0.999
==== e(  18) =     7.38114 eV ==== 
     psi = 0.471*[#  57]+0.260*[#  61]+0.154*[#  53]+0.037*[#   7]+0.037*[#  27]
          +0.011*[#   4]+0.011*[#  24]+0.004*[#  16]+0.004*[#  36]+0.002*[#  49]
          +0.002*[#  44]+0.001*[#  13]+0.001*[#  33]
    |psi|^2 = 0.999
==== e(  19) =     7.92562 eV ==== 
     psi = 0.266*[#  59]+0.247*[#  55]+0.127*[#  51]+0.093*[#  63]+0.093*[#  67]
          +0.035*[#  10]+0.035*[#  30]+0.012*[#   1]+0.012*[#  14]+0.012*[#  21]
          +0.012*[#  34]+0.007*[#  62]+0.007*[#  66]+0.005*[#  11]+0.005*[#  31]
          +0.004*[#  46]+0.004*[#  64]+0.004*[#  68]+0.003*[#   5]+0.003*[#  25]
          +0.003*[#   2]+0.003*[#  22]+0.002*[#   6]+0.002*[#  26]
    |psi|^2 = 0.998
==== e(  20) =     8.70380 eV ==== 
     psi = 0.256*[#  63]+0.256*[#  67]+0.184*[#  45]+0.101*[#   5]+0.101*[#  25]
          +0.027*[#  50]+0.015*[#   2]+0.015*[#  22]+0.011*[#  11]+0.011*[#  31]
          +0.006*[#  60]+0.003*[#  10]+0.003*[#  30]+0.001*[#  52]
    |psi|^2 = 0.997
==== e(  21) =     8.82830 eV ==== 
     psi = 0.385*[#  55]+0.356*[#  59]+0.108*[#   8]+0.108*[#  28]+0.015*[#  46]
          +0.010*[#  17]+0.010*[#  37]
    |psi|^2 = 0.996
==== e(  22) =     9.67811 eV ==== 
     psi = 0.633*[#  49]+0.133*[#  61]+0.096*[#  57]+0.034*[#  65]+0.034*[#  69]
          +0.009*[#  53]+0.007*[#   7]+0.007*[#  27]+0.007*[#   9]+0.007*[#  29]
          +0.003*[#  16]+0.003*[#  36]+0.003*[#  47]+0.003*[#  20]+0.003*[#  40]
          +0.001*[#  18]+0.001*[#  38]
    |psi|^2 = 0.987
==== e(  23) =     9.77479 eV ==== 
     psi = 0.327*[#  65]+0.327*[#  69]+0.174*[#  47]+0.035*[#  49]+0.028*[#   7]
          +0.028*[#  27]+0.013*[#  13]+0.013*[#  33]+0.012*[#  20]+0.012*[#  40]
          +0.007*[#   4]+0.007*[#  24]+0.003*[#   9]+0.003*[#  29]+0.001*[#  16]
          +0.001*[#  36]+0.001*[#  61]
    |psi|^2 = 0.994
==== e(  24) =     9.79543 eV ==== 
     psi = 0.337*[#  64]+0.337*[#  68]+0.130*[#  46]+0.033*[#   6]+0.033*[#  26]
          +0.016*[#  56]+0.013*[#  12]+0.013*[#  19]+0.013*[#  32]+0.013*[#  39]
          +0.010*[#  59]+0.009*[#  60]+0.007*[#   3]+0.007*[#  23]+0.006*[#  63]
          +0.006*[#  67]+0.003*[#  51]+0.002*[#  15]+0.002*[#  35]+0.002*[#  48]
          
    |psi|^2 = 0.995
==== e(  25) =     9.96143 eV ==== 
     psi = 0.440*[#  56]+0.194*[#  60]+0.095*[#  64]+0.095*[#  68]+0.048*[#  48]
          +0.019*[#  46]+0.016*[#   6]+0.016*[#  26]+0.012*[#  15]+0.012*[#  35]
          +0.011*[#  52]+0.008*[#  19]+0.008*[#  39]+0.002*[#  58]+0.002*[#  63]
          +0.002*[#  67]+0.002*[#  50]+0.001*[#   8]+0.001*[#  28]
    |psi|^2 = 0.994
==== e(  26) =    10.13588 eV ==== 
     psi = 0.281*[#  49]+0.275*[#  61]+0.118*[#  57]+0.109*[#  65]+0.109*[#  69]
          +0.031*[#  47]+0.011*[#  16]+0.011*[#  36]+0.010*[#   7]+0.010*[#  27]
          +0.008*[#  20]+0.008*[#  40]+0.008*[#  53]
    |psi|^2 = 0.990
==== e(  27) =    10.28802 eV ==== 
     psi = 0.754*[#  47]+0.073*[#  65]+0.073*[#  69]+0.030*[#   7]+0.030*[#  27]
          +0.014*[#  61]+0.006*[#  57]+0.005*[#  49]+0.001*[#   4]+0.001*[#  24]
          
    |psi|^2 = 0.991
==== e(  28) =    10.29443 eV ==== 
     psi = 0.784*[#  46]+0.060*[#  64]+0.060*[#  68]+0.028*[#   6]+0.028*[#  26]
          +0.006*[#  55]+0.005*[#  56]+0.003*[#   8]+0.003*[#  28]+0.002*[#  60]
          +0.002*[#  63]+0.002*[#  67]+0.001*[#   3]+0.001*[#  23]+0.001*[#  48]
          +0.001*[#  59]
    |psi|^2 = 0.991
==== e(  29) =    10.62708 eV ==== 
     psi = 0.329*[#  64]+0.329*[#  68]+0.161*[#  48]+0.057*[#  56]+0.046*[#  60]
          +0.010*[#  19]+0.010*[#  39]+0.006*[#  58]+0.005*[#   6]+0.005*[#  26]
          +0.004*[#  45]+0.004*[#  15]+0.004*[#  35]+0.003*[#  46]+0.003*[#  12]
          +0.003*[#  32]+0.002*[#   3]+0.002*[#  10]+0.002*[#  23]+0.002*[#  30]
          +0.002*[#  54]
    |psi|^2 = 0.995
==== e(  30) =    10.73258 eV ==== 
     psi = 0.326*[#  65]+0.326*[#  69]+0.140*[#  61]+0.135*[#  57]+0.010*[#  49]
          +0.009*[#   7]+0.009*[#  27]+0.007*[#  20]+0.007*[#  40]+0.003*[#   4]
          +0.003*[#  13]+0.003*[#  24]+0.003*[#  33]+0.002*[#   9]+0.002*[#  29]
          +0.002*[#  16]+0.002*[#  36]+0.002*[#  47]+0.002*[#  53]
    |psi|^2 = 0.995
==== e(  31) =    10.97732 eV ==== 
     psi = 0.712*[#  48]+0.078*[#  60]+0.053*[#  56]+0.033*[#  64]+0.033*[#  68]
          +0.032*[#  45]+0.020*[#  54]+0.009*[#  58]+0.004*[#  52]+0.002*[#   6]
          +0.002*[#   8]+0.002*[#  26]+0.002*[#  28]+0.002*[#  63]+0.002*[#  67]
          +0.001*[#   5]+0.001*[#  25]
    |psi|^2 = 0.995
==== e(  32) =    11.16456 eV ==== 
     psi = 0.253*[#  63]+0.253*[#  67]+0.190*[#  45]+0.100*[#  59]+0.096*[#  55]
          +0.015*[#   5]+0.015*[#  25]+0.010*[#   2]+0.010*[#  22]+0.008*[#  48]
          +0.006*[#  46]+0.005*[#  11]+0.005*[#  31]+0.004*[#  51]+0.004*[#  60]
          +0.004*[#  14]+0.004*[#  34]+0.002*[#  62]+0.002*[#  66]+0.002*[#  10]
          +0.002*[#  30]+0.002*[#  64]+0.002*[#  68]+0.001*[#  56]
    |psi|^2 = 0.995
==== e(  33) =    11.29722 eV ==== 
     psi = 0.554*[#  45]+0.137*[#  63]+0.137*[#  67]+0.032*[#  59]+0.031*[#  55]
          +0.021*[#   5]+0.021*[#  25]+0.011*[#  60]+0.010*[#  48]+0.005*[#   2]
          +0.005*[#  22]+0.003*[#  56]+0.003*[#  58]+0.003*[#  64]+0.003*[#  68]
          +0.002*[#  14]+0.002*[#  34]+0.002*[#  62]+0.002*[#  66]+0.002*[#  11]
          +0.002*[#  31]+0.002*[#  51]+0.001*[#  46]+0.001*[#  10]+0.001*[#  30]
          +0.001*[#  52]
    |psi|^2 = 0.995
==== e(  34) =    14.33042 eV ==== 
     psi = 0.277*[#   8]+0.277*[#  28]+0.163*[#  17]+0.163*[#  37]+0.043*[#  59]
          +0.042*[#  55]+0.003*[#  19]+0.003*[#  39]+0.002*[#  64]+0.002*[#  68]
          
    |psi|^2 = 0.979
==== e(  35) =    14.95460 eV ==== 
     psi = 0.462*[#   8]+0.462*[#  28]+0.020*[#  58]+0.019*[#  54]+0.007*[#  17]
          +0.007*[#  37]+0.006*[#  19]+0.006*[#  39]
    |psi|^2 = 0.994
==== e(  36) =    15.42090 eV ==== 
     psi = 0.431*[#  14]+0.431*[#  34]+0.036*[#   5]+0.036*[#  25]+0.011*[#  63]
          +0.011*[#  67]+0.008*[#  50]+0.008*[#  10]+0.008*[#  30]+0.001*[#  62]
          +0.001*[#  66]+0.001*[#  11]+0.001*[#  31]
    |psi|^2 = 0.992
==== e(  37) =    15.94925 eV ==== 
     psi = 0.489*[#  18]+0.489*[#  38]+0.004*[#  20]+0.004*[#  40]+0.004*[#  49]
          +0.003*[#   9]+0.003*[#  29]
    |psi|^2 = 0.997
==== e(  38) =    15.95148 eV ==== 
     psi = 0.182*[#  10]+0.182*[#  30]+0.086*[#   5]+0.086*[#  25]+0.068*[#  62]
          +0.068*[#  66]+0.036*[#  11]+0.036*[#  31]+0.033*[#  63]+0.033*[#  67]
          +0.020*[#   1]+0.020*[#  21]+0.019*[#  50]+0.016*[#  15]+0.016*[#  35]
          +0.014*[#  58]+0.013*[#  54]+0.008*[#   2]+0.008*[#  22]+0.006*[#  19]
          +0.006*[#  39]+0.005*[#  12]+0.005*[#  32]+0.005*[#  45]+0.003*[#  64]
          +0.003*[#  68]+0.003*[#  14]+0.003*[#  34]+0.002*[#  56]
    |psi|^2 = 0.991
==== e(  39) =    15.97007 eV ==== 
     psi = 0.256*[#  16]+0.256*[#  36]+0.212*[#  20]+0.212*[#  40]+0.020*[#   7]
          +0.020*[#  27]+0.008*[#  18]+0.008*[#  38]+0.004*[#  47]
    |psi|^2 = 0.997
==== e(  40) =    15.97224 eV ==== 
     psi = 0.257*[#  15]+0.257*[#  35]+0.208*[#  19]+0.208*[#  39]+0.020*[#   6]
          +0.020*[#  26]+0.004*[#  46]+0.004*[#  10]+0.004*[#  30]+0.002*[#   5]
          +0.002*[#  25]+0.001*[#  62]+0.001*[#  66]
    |psi|^2 = 0.997

 k =   0.1120988278 -0.0000000000  0.0324109805
==== e(   1) =   -99.71426 eV ==== 
     psi = 0.971*[#  41]+0.008*[#  11]+0.008*[#  31]+0.005*[#  10]+0.005*[#  30]
          +0.002*[#  50]
    |psi|^2 = 1.000
==== e(   2) =   -57.29917 eV ==== 
     psi = 0.997*[#  43]+0.003*[#  60]
    |psi|^2 = 1.000
==== e(   3) =   -57.29917 eV ==== 
     psi = 0.997*[#  44]+0.003*[#  57]
    |psi|^2 = 1.000
==== e(   4) =   -56.75535 eV ==== 
     psi = 0.999*[#  42]
    |psi|^2 = 1.000
==== e(   5) =   -19.26357 eV ==== 
     psi = 0.445*[#   1]+0.445*[#  21]+0.035*[#  10]+0.035*[#  30]+0.012*[#  12]
          +0.012*[#  32]+0.003*[#  50]+0.003*[#  11]+0.003*[#  31]+0.001*[#  52]
          
    |psi|^2 = 1.000
==== e(   6) =   -19.10980 eV ==== 
     psi = 0.450*[#   1]+0.450*[#  21]+0.025*[#  51]+0.013*[#   5]+0.013*[#  25]
          +0.008*[#  11]+0.008*[#  31]+0.007*[#  10]+0.007*[#  30]+0.003*[#  63]
          +0.003*[#  67]+0.003*[#  59]+0.003*[#  55]+0.002*[#  12]+0.002*[#  32]
          
    |psi|^2 = 1.000
==== e(   7) =    -6.90231 eV ==== 
     psi = 0.247*[#  54]+0.245*[#  58]+0.101*[#  11]+0.101*[#  31]+0.076*[#   2]
          +0.076*[#  22]+0.049*[#  50]+0.019*[#  10]+0.019*[#  30]+0.016*[#  62]
          +0.016*[#  66]+0.008*[#  45]+0.004*[#  41]+0.003*[#   5]+0.003*[#  25]
          +0.003*[#   1]+0.003*[#  21]+0.003*[#  52]+0.002*[#  63]+0.002*[#  67]
          +0.001*[#   6]+0.001*[#  26]
    |psi|^2 = 1.000
==== e(   8) =    -5.16735 eV ==== 
     psi = 0.233*[#  54]+0.205*[#  62]+0.205*[#  66]+0.073*[#  10]+0.073*[#  30]
          +0.050*[#   2]+0.050*[#  22]+0.015*[#  58]+0.013*[#   1]+0.013*[#  21]
          +0.012*[#  50]+0.009*[#  48]+0.008*[#  11]+0.008*[#  31]+0.006*[#   3]
          +0.006*[#  23]+0.004*[#   8]+0.004*[#  28]+0.001*[#  52]+0.001*[#  63]
          +0.001*[#  67]
    |psi|^2 = 0.999
==== e(   9) =    -5.10424 eV ==== 
     psi = 0.479*[#  58]+0.256*[#  54]+0.055*[#  62]+0.055*[#  66]+0.033*[#  48]
          +0.018*[#  10]+0.018*[#  30]+0.015*[#   8]+0.015*[#  28]+0.013*[#   2]
          +0.013*[#  22]+0.004*[#   1]+0.004*[#  21]+0.003*[#  52]+0.003*[#  50]
          +0.003*[#  17]+0.003*[#  37]+0.002*[#  11]+0.002*[#  31]
    |psi|^2 = 0.999
==== e(  10) =    -4.68989 eV ==== 
     psi = 0.347*[#  62]+0.347*[#  66]+0.065*[#   2]+0.065*[#  22]+0.053*[#   5]
          +0.053*[#  25]+0.028*[#  51]+0.006*[#  10]+0.006*[#  30]+0.006*[#   3]
          +0.006*[#  23]+0.002*[#  14]+0.002*[#  34]+0.002*[#  55]+0.001*[#   1]
          +0.001*[#  21]+0.001*[#  59]+0.001*[#  63]+0.001*[#  67]
    |psi|^2 = 1.000
==== e(  11) =    -2.68189 eV ==== 
     psi = 0.446*[#   3]+0.446*[#  23]+0.024*[#  12]+0.024*[#  32]+0.014*[#   2]
          +0.014*[#  22]+0.011*[#  64]+0.011*[#  68]+0.001*[#  62]+0.001*[#  66]
          
    |psi|^2 = 1.000
==== e(  12) =    -2.67710 eV ==== 
     psi = 0.459*[#   4]+0.459*[#  24]+0.027*[#  13]+0.027*[#  33]+0.011*[#  65]
          +0.011*[#  69]
    |psi|^2 = 1.000
==== e(  13) =    -2.60963 eV ==== 
     psi = 0.459*[#   4]+0.459*[#  24]+0.023*[#  13]+0.023*[#  33]+0.013*[#  61]
          +0.011*[#  53]+0.003*[#  65]+0.003*[#  69]+0.002*[#  57]
    |psi|^2 = 1.000
==== e(  14) =    -2.58305 eV ==== 
     psi = 0.453*[#   3]+0.453*[#  23]+0.021*[#  12]+0.021*[#  32]+0.012*[#  56]
          +0.011*[#  52]+0.009*[#  54]+0.003*[#  64]+0.003*[#  68]+0.002*[#   2]
          +0.002*[#  22]+0.002*[#  60]+0.002*[#  62]+0.002*[#  66]
    |psi|^2 = 1.000
==== e(  15) =    -2.12799 eV ==== 
     psi = 0.377*[#   2]+0.377*[#  22]+0.069*[#  62]+0.069*[#  66]+0.019*[#  11]
          +0.019*[#  31]+0.010*[#  55]+0.009*[#  59]+0.008*[#   3]+0.008*[#  23]
          +0.007*[#  63]+0.007*[#  67]+0.006*[#   5]+0.006*[#  25]+0.001*[#  14]
          +0.001*[#  34]
    |psi|^2 = 1.000
==== e(  16) =    -1.31979 eV ==== 
     psi = 0.319*[#   2]+0.319*[#  22]+0.109*[#  62]+0.109*[#  66]+0.050*[#  58]
          +0.046*[#  54]+0.013*[#  63]+0.013*[#  67]+0.006*[#  45]+0.003*[#  10]
          +0.003*[#  30]+0.002*[#  11]+0.002*[#  31]
    |psi|^2 = 0.999
==== e(  17) =     7.32062 eV ==== 
     psi = 0.476*[#  60]+0.240*[#  56]+0.148*[#  52]+0.035*[#   6]+0.035*[#  26]
          +0.014*[#  48]+0.011*[#   3]+0.011*[#  23]+0.005*[#  50]+0.003*[#  15]
          +0.003*[#  35]+0.002*[#  63]+0.002*[#  67]+0.002*[#  43]+0.001*[#   5]
          +0.001*[#  12]+0.001*[#  25]+0.001*[#  32]
    |psi|^2 = 0.999
==== e(  18) =     7.38329 eV ==== 
     psi = 0.470*[#  57]+0.260*[#  61]+0.154*[#  53]+0.037*[#   7]+0.037*[#  27]
          +0.011*[#   4]+0.011*[#  24]+0.004*[#  16]+0.004*[#  36]+0.003*[#  49]
          +0.002*[#  44]+0.001*[#  13]+0.001*[#  33]
    |psi|^2 = 0.999
==== e(  19) =     7.92082 eV ==== 
     psi = 0.269*[#  59]+0.242*[#  55]+0.125*[#  51]+0.092*[#  63]+0.092*[#  67]
          +0.035*[#  10]+0.035*[#  30]+0.012*[#   1]+0.012*[#  14]+0.012*[#  21]
          +0.012*[#  34]+0.006*[#  62]+0.006*[#  66]+0.006*[#  46]+0.005*[#  64]
          +0.005*[#  68]+0.005*[#  11]+0.005*[#  31]+0.003*[#   5]+0.003*[#  25]
          +0.003*[#   2]+0.003*[#  22]+0.003*[#   6]+0.003*[#  26]
    |psi|^2 = 0.998
==== e(  20) =     8.70931 eV ==== 
     psi = 0.254*[#  63]+0.254*[#  67]+0.186*[#  45]+0.100*[#   5]+0.100*[#  25]
          +0.026*[#  50]+0.015*[#   2]+0.015*[#  22]+0.011*[#  11]+0.011*[#  31]
          +0.008*[#  60]+0.003*[#  10]+0.003*[#  30]+0.002*[#  52]
    |psi|^2 = 0.997
==== e(  21) =     8.82357 eV ==== 
     psi = 0.388*[#  55]+0.348*[#  59]+0.106*[#   8]+0.106*[#  28]+0.021*[#  46]
          +0.010*[#  17]+0.010*[#  37]
    |psi|^2 = 0.996
==== e(  22) =     9.63742 eV ==== 
     psi = 0.599*[#  49]+0.149*[#  61]+0.111*[#  57]+0.035*[#  65]+0.035*[#  69]
          +0.011*[#  53]+0.008*[#   7]+0.008*[#  27]+0.007*[#   9]+0.007*[#  29]
          +0.003*[#  16]+0.003*[#  36]+0.003*[#  20]+0.003*[#  40]+0.002*[#  47]
          +0.001*[#  18]+0.001*[#  38]
    |psi|^2 = 0.987
==== e(  23) =     9.76871 eV ==== 
     psi = 0.327*[#  65]+0.327*[#  69]+0.175*[#  47]+0.031*[#  49]+0.028*[#   7]
          +0.028*[#  27]+0.013*[#  13]+0.013*[#  33]+0.012*[#  20]+0.012*[#  40]
          +0.007*[#   4]+0.007*[#  24]+0.004*[#   9]+0.004*[#  29]+0.001*[#  16]
          +0.001*[#  36]+0.001*[#  61]
    |psi|^2 = 0.994
==== e(  24) =     9.79592 eV ==== 
     psi = 0.329*[#  64]+0.329*[#  68]+0.109*[#  46]+0.033*[#   6]+0.033*[#  26]
          +0.033*[#  56]+0.017*[#  60]+0.013*[#  59]+0.013*[#  19]+0.013*[#  39]
          +0.012*[#  12]+0.012*[#  32]+0.008*[#  63]+0.008*[#  67]+0.007*[#   3]
          +0.007*[#  23]+0.004*[#  48]+0.003*[#  51]+0.002*[#  15]+0.002*[#  35]
          +0.001*[#  52]
    |psi|^2 = 0.995
==== e(  25) =     9.94156 eV ==== 
     psi = 0.431*[#  56]+0.177*[#  60]+0.096*[#  64]+0.096*[#  68]+0.060*[#  48]
          +0.027*[#  46]+0.016*[#   6]+0.016*[#  26]+0.012*[#  15]+0.012*[#  35]
          +0.009*[#  52]+0.008*[#  19]+0.008*[#  39]+0.003*[#  63]+0.003*[#  67]
          +0.003*[#  58]+0.002*[#  50]+0.002*[#   8]+0.002*[#  28]+0.002*[#  59]
          +0.001*[#  11]+0.001*[#  12]+0.001*[#  31]+0.001*[#  32]+0.001*[#   2]
          +0.001*[#  22]
    |psi|^2 = 0.994
==== e(  26) =    10.16482 eV ==== 
     psi = 0.303*[#  49]+0.240*[#  61]+0.114*[#  65]+0.114*[#  69]+0.096*[#  57]
          +0.058*[#  47]+0.010*[#  16]+0.010*[#  36]+0.010*[#   7]+0.010*[#  27]
          +0.008*[#  20]+0.008*[#  40]+0.006*[#  53]
    |psi|^2 = 0.990
==== e(  27) =    10.29240 eV ==== 
     psi = 0.725*[#  47]+0.075*[#  65]+0.075*[#  69]+0.030*[#   7]+0.030*[#  27]
          +0.025*[#  61]+0.015*[#  49]+0.011*[#  57]+0.001*[#   4]+0.001*[#  24]
          +0.001*[#  16]+0.001*[#  36]
    |psi|^2 = 0.991
==== e(  28) =    10.29958 eV ==== 
     psi = 0.782*[#  46]+0.057*[#  64]+0.057*[#  68]+0.026*[#   6]+0.026*[#  26]
          +0.008*[#  55]+0.006*[#  56]+0.005*[#   8]+0.005*[#  28]+0.003*[#  60]
          +0.003*[#  63]+0.003*[#  67]+0.002*[#  48]+0.002*[#  59]+0.001*[#   3]
          +0.001*[#  23]
    |psi|^2 = 0.991
==== e(  29) =    10.59708 eV ==== 
     psi = 0.341*[#  64]+0.341*[#  68]+0.145*[#  48]+0.050*[#  56]+0.038*[#  60]
          +0.010*[#  19]+0.010*[#  39]+0.007*[#  58]+0.006*[#  46]+0.005*[#  45]
          +0.005*[#   6]+0.005*[#  26]+0.004*[#  15]+0.004*[#  35]+0.003*[#  10]
          +0.003*[#  30]+0.002*[#   3]+0.002*[#  12]+0.002*[#  23]+0.002*[#  32]
          +0.002*[#  54]
    |psi|^2 = 0.994
==== e(  30) =    10.72715 eV ==== 
     psi = 0.317*[#  65]+0.317*[#  69]+0.147*[#  61]+0.139*[#  57]+0.016*[#  49]
          +0.009*[#   7]+0.009*[#  27]+0.007*[#  20]+0.007*[#  40]+0.003*[#   9]
          +0.003*[#  29]+0.003*[#   4]+0.003*[#  24]+0.003*[#  13]+0.003*[#  33]
          +0.002*[#  47]+0.002*[#  16]+0.002*[#  36]+0.002*[#  53]
    |psi|^2 = 0.995
==== e(  31) =    11.01003 eV ==== 
     psi = 0.684*[#  48]+0.080*[#  60]+0.064*[#  45]+0.052*[#  56]+0.026*[#  64]
          +0.026*[#  68]+0.021*[#  54]+0.008*[#  58]+0.006*[#  63]+0.006*[#  67]
          +0.004*[#  52]+0.002*[#   6]+0.002*[#  26]+0.002*[#   8]+0.002*[#  28]
          +0.002*[#   5]+0.002*[#  25]
    |psi|^2 = 0.995
==== e(  32) =    11.15747 eV ==== 
     psi = 0.251*[#  63]+0.251*[#  67]+0.166*[#  45]+0.102*[#  59]+0.097*[#  55]
          +0.022*[#  48]+0.014*[#   5]+0.014*[#  25]+0.010*[#   2]+0.010*[#  22]
          +0.010*[#  46]+0.008*[#  60]+0.005*[#  11]+0.005*[#  31]+0.004*[#  51]
          +0.004*[#  14]+0.004*[#  34]+0.002*[#  56]+0.002*[#  64]+0.002*[#  68]
          +0.002*[#  10]+0.002*[#  30]+0.002*[#  62]+0.002*[#  66]
    |psi|^2 = 0.995
==== e(  33) =    11.31756 eV ==== 
     psi = 0.542*[#  45]+0.133*[#  63]+0.133*[#  67]+0.031*[#  59]+0.030*[#  55]
          +0.020*[#   5]+0.020*[#  25]+0.020*[#  48]+0.018*[#  60]+0.005*[#  56]
          +0.004*[#   2]+0.004*[#  22]+0.004*[#  64]+0.004*[#  68]+0.003*[#  58]
          +0.002*[#  14]+0.002*[#  34]+0.002*[#  62]+0.002*[#  66]+0.002*[#  11]
          +0.002*[#  31]+0.002*[#  46]+0.002*[#  52]+0.002*[#  51]+0.001*[#  10]
          +0.001*[#  30]
    |psi|^2 = 0.995
==== e(  34) =    14.33987 eV ==== 
     psi = 0.277*[#   8]+0.277*[#  28]+0.161*[#  17]+0.161*[#  37]+0.042*[#  59]
          +0.041*[#  55]+0.004*[#  19]+0.004*[#  39]+0.002*[#  64]+0.002*[#  68]
          +0.001*[#   6]+0.001*[#  26]
    |psi|^2 = 0.979
==== e(  35) =    14.97491 eV ==== 
     psi = 0.456*[#   8]+0.456*[#  28]+0.019*[#  58]+0.018*[#  54]+0.009*[#  17]
          +0.009*[#  37]+0.009*[#  19]+0.009*[#  39]+0.001*[#  55]+0.001*[#  59]
          
    |psi|^2 = 0.994
==== e(  36) =    15.42316 eV ==== 
     psi = 0.430*[#  14]+0.430*[#  34]+0.038*[#   5]+0.038*[#  25]+0.011*[#  63]
          +0.011*[#  67]+0.009*[#  50]+0.007*[#  10]+0.007*[#  30]+0.001*[#  62]
          +0.001*[#  66]
    |psi|^2 = 0.992
==== e(  37) =    15.95044 eV ==== 
     psi = 0.487*[#  18]+0.487*[#  38]+0.006*[#  20]+0.006*[#  40]+0.004*[#  49]
          +0.003*[#   9]+0.003*[#  29]
    |psi|^2 = 0.997
==== e(  38) =    15.97002 eV ==== 
     psi = 0.170*[#  15]+0.170*[#  35]+0.131*[#  19]+0.131*[#  39]+0.067*[#  10]
          +0.067*[#  30]+0.032*[#   5]+0.032*[#  25]+0.025*[#  62]+0.025*[#  66]
          +0.014*[#  11]+0.014*[#  31]+0.012*[#   6]+0.012*[#  26]+0.012*[#  63]
          +0.012*[#  67]+0.008*[#   1]+0.008*[#  21]+0.007*[#  50]+0.006*[#  58]
          +0.004*[#  54]+0.004*[#  14]+0.004*[#  34]+0.003*[#  12]+0.003*[#  32]
          +0.003*[#   2]+0.003*[#  22]+0.002*[#  46]+0.002*[#  45]+0.002*[#  64]
          +0.002*[#  68]+0.001*[#  17]+0.001*[#  37]
    |psi|^2 = 0.995
==== e(  39) =    15.97059 eV ==== 
     psi = 0.255*[#  16]+0.255*[#  36]+0.211*[#  20]+0.211*[#  40]+0.019*[#   7]
          +0.019*[#  27]+0.011*[#  18]+0.011*[#  38]+0.004*[#  47]
    |psi|^2 = 0.997
==== e(  40) =    15.97825 eV ==== 
     psi = 0.111*[#  15]+0.111*[#  35]+0.111*[#  10]+0.111*[#  30]+0.083*[#  19]
          +0.083*[#  39]+0.054*[#   5]+0.054*[#  25]+0.042*[#  62]+0.042*[#  66]
[...]
          +0.001*[#  54]+0.001*[#  58]
    |psi|^2 = 0.998
==== e(  20) =     8.86020 eV ==== 
     psi = 0.381*[#  55]+0.381*[#  59]+0.106*[#   8]+0.106*[#  28]+0.011*[#  17]
          +0.011*[#  37]
    |psi|^2 = 0.996
==== e(  21) =     8.91302 eV ==== 
     psi = 0.262*[#  63]+0.262*[#  67]+0.209*[#  45]+0.075*[#   5]+0.075*[#  25]
          +0.027*[#  50]+0.015*[#   2]+0.015*[#  22]+0.011*[#  11]+0.011*[#  31]
          +0.006*[#  10]+0.006*[#  30]+0.004*[#  14]+0.004*[#  34]+0.002*[#  51]
          +0.002*[#  54]+0.002*[#  58]+0.002*[#  62]+0.002*[#  66]+0.001*[#  55]
          +0.001*[#  59]
    |psi|^2 = 0.996
==== e(  22) =     9.62351 eV ==== 
     psi = 0.271*[#  65]+0.271*[#  69]+0.139*[#  61]+0.130*[#  57]+0.050*[#   7]
          +0.050*[#  27]+0.021*[#  47]+0.017*[#  53]+0.012*[#  20]+0.012*[#  40]
          +0.006*[#  13]+0.006*[#  33]+0.005*[#   4]+0.005*[#  24]+0.001*[#  16]
          +0.001*[#  36]
    |psi|^2 = 0.996
==== e(  23) =     9.62351 eV ==== 
     psi = 0.271*[#  64]+0.271*[#  68]+0.139*[#  56]+0.130*[#  60]+0.050*[#   6]
          +0.050*[#  26]+0.021*[#  46]+0.017*[#  52]+0.012*[#  19]+0.012*[#  39]
          +0.006*[#  12]+0.006*[#  32]+0.005*[#   3]+0.005*[#  23]+0.001*[#  15]
          +0.001*[#  35]
    |psi|^2 = 0.996
==== e(  24) =     9.81561 eV ==== 
     psi = 0.966*[#  49]+0.006*[#   9]+0.006*[#  29]+0.002*[#  18]+0.002*[#  38]
          
    |psi|^2 = 0.983
==== e(  25) =    10.00524 eV ==== 
     psi = 0.593*[#  47]+0.128*[#  65]+0.128*[#  69]+0.065*[#  61]+0.027*[#  57]
          +0.009*[#  20]+0.009*[#  40]+0.008*[#  13]+0.008*[#  33]+0.005*[#  16]
          +0.005*[#  36]+0.003*[#   7]+0.003*[#  27]+0.002*[#  53]
    |psi|^2 = 0.991
==== e(  26) =    10.00524 eV ==== 
     psi = 0.593*[#  46]+0.128*[#  64]+0.128*[#  68]+0.065*[#  56]+0.027*[#  60]
          +0.009*[#  19]+0.009*[#  39]+0.008*[#  12]+0.008*[#  32]+0.005*[#  15]
          +0.005*[#  35]+0.003*[#   6]+0.003*[#  26]+0.002*[#  52]
    |psi|^2 = 0.991
==== e(  27) =    10.47003 eV ==== 
     psi = 0.268*[#  61]+0.228*[#  47]+0.147*[#  65]+0.147*[#  69]+0.129*[#  57]
          +0.018*[#   7]+0.018*[#  27]+0.008*[#  16]+0.008*[#  36]+0.004*[#   4]
          +0.004*[#  24]+0.004*[#  13]+0.004*[#  33]+0.003*[#  53]+0.002*[#  20]
          +0.002*[#  40]
    |psi|^2 = 0.994
==== e(  28) =    10.47003 eV ==== 
     psi = 0.268*[#  56]+0.228*[#  46]+0.147*[#  64]+0.147*[#  68]+0.129*[#  60]
          +0.018*[#   6]+0.018*[#  26]+0.008*[#  15]+0.008*[#  35]+0.004*[#   3]
          +0.004*[#  23]+0.004*[#  12]+0.004*[#  32]+0.003*[#  52]+0.002*[#  19]
          +0.002*[#  39]
    |psi|^2 = 0.994
==== e(  29) =    10.48236 eV ==== 
     psi = 0.236*[#  63]+0.236*[#  67]+0.197*[#  45]+0.107*[#  55]+0.107*[#  59]
          +0.024*[#   5]+0.024*[#  25]+0.013*[#  10]+0.013*[#  30]+0.005*[#  14]
          +0.005*[#  34]+0.005*[#   2]+0.005*[#  22]+0.004*[#  62]+0.004*[#  66]
          +0.003*[#  50]+0.002*[#   1]+0.002*[#  21]+0.002*[#  51]+0.001*[#  54]
          +0.001*[#  58]
    |psi|^2 = 0.994
==== e(  30) =    10.77933 eV ==== 
     psi = 0.329*[#  65]+0.329*[#  69]+0.125*[#  47]+0.087*[#  61]+0.079*[#  57]
          +0.008*[#  20]+0.008*[#  40]+0.005*[#  16]+0.005*[#  36]+0.003*[#   7]
          +0.003*[#  13]+0.003*[#  27]+0.003*[#  33]+0.002*[#   4]+0.002*[#  24]
          
    |psi|^2 = 0.994
==== e(  31) =    10.77933 eV ==== 
     psi = 0.329*[#  64]+0.329*[#  68]+0.125*[#  46]+0.087*[#  56]+0.079*[#  60]
          +0.008*[#  19]+0.008*[#  39]+0.005*[#  15]+0.005*[#  35]+0.003*[#   6]
          +0.003*[#  12]+0.003*[#  26]+0.003*[#  32]+0.002*[#   3]+0.002*[#  23]
          
    |psi|^2 = 0.994
==== e(  32) =    10.83710 eV ==== 
     psi = 0.950*[#  48]+0.019*[#  54]+0.019*[#  58]+0.003*[#   8]+0.003*[#  28]
          
    |psi|^2 = 0.995
==== e(  33) =    11.58263 eV ==== 
     psi = 0.556*[#  45]+0.170*[#  63]+0.170*[#  67]+0.017*[#  55]+0.017*[#  59]
          +0.009*[#   5]+0.009*[#  25]+0.009*[#  54]+0.009*[#  58]+0.005*[#  14]
          +0.005*[#  34]+0.005*[#   2]+0.005*[#  22]+0.002*[#  10]+0.002*[#  30]
          +0.001*[#  62]+0.001*[#  66]
    |psi|^2 = 0.996
==== e(  34) =    13.87603 eV ==== 
     psi = 0.400*[#   8]+0.400*[#  28]+0.067*[#  17]+0.067*[#  37]+0.014*[#  55]
          +0.014*[#  59]+0.011*[#  54]+0.011*[#  58]
    |psi|^2 = 0.985
==== e(  35) =    15.29314 eV ==== 
     psi = 0.302*[#  14]+0.302*[#  34]+0.146*[#   5]+0.146*[#  25]+0.022*[#  50]
          +0.017*[#  63]+0.017*[#  67]+0.012*[#  62]+0.012*[#  66]+0.005*[#  45]
          +0.001*[#  10]+0.001*[#  30]
    |psi|^2 = 0.989
==== e(  36) =    15.38529 eV ==== 
     psi = 0.304*[#   8]+0.304*[#  28]+0.166*[#  17]+0.166*[#  37]+0.018*[#  55]
          +0.018*[#  59]+0.008*[#  54]+0.008*[#  58]
    |psi|^2 = 0.992
==== e(  37) =    15.83318 eV ==== 
     psi = 0.164*[#  14]+0.164*[#  34]+0.111*[#  10]+0.111*[#  30]+0.073*[#   5]
          +0.073*[#  25]+0.049*[#  11]+0.049*[#  31]+0.048*[#  62]+0.048*[#  66]
          +0.020*[#  63]+0.020*[#  67]+0.014*[#   1]+0.014*[#  21]+0.007*[#   2]
          +0.007*[#  22]+0.007*[#  50]+0.004*[#  54]+0.004*[#  58]+0.002*[#  45]
          +0.002*[#  51]
    |psi|^2 = 0.992
==== e(  38) =    15.95672 eV ==== 
     psi = 0.493*[#  18]+0.493*[#  38]+0.005*[#   9]+0.005*[#  29]+0.002*[#  49]
          
    |psi|^2 = 0.997
==== e(  39) =    15.97699 eV ==== 
     psi = 0.240*[#  15]+0.240*[#  35]+0.186*[#  19]+0.186*[#  39]+0.027*[#  16]
          +0.027*[#  36]+0.021*[#  20]+0.021*[#  40]+0.019*[#   6]+0.019*[#  26]
          +0.002*[#  60]+0.002*[#   7]+0.002*[#  27]+0.002*[#  46]
    |psi|^2 = 0.997
==== e(  40) =    15.97699 eV ==== 
     psi = 0.240*[#  16]+0.240*[#  36]+0.186*[#  20]+0.186*[#  40]+0.027*[#  15]
          +0.027*[#  35]+0.021*[#  19]+0.021*[#  39]+0.019*[#   7]+0.019*[#  27]
          +0.002*[#  57]+0.002*[#   6]+0.002*[#  26]+0.002*[#  47]
    |psi|^2 = 0.997

 k =   0.0000000000  0.0000000000  0.2700915041
==== e(   1) =   -99.71426 eV ==== 
     psi = 0.972*[#  41]+0.009*[#  11]+0.009*[#  31]+0.004*[#  10]+0.004*[#  30]
          +0.002*[#  50]
    |psi|^2 = 1.000
==== e(   2) =   -57.29917 eV ==== 
     psi = 0.997*[#  44]+0.003*[#  57]
    |psi|^2 = 1.000
==== e(   3) =   -57.29917 eV ==== 
     psi = 0.997*[#  43]+0.003*[#  60]
    |psi|^2 = 1.000
==== e(   4) =   -56.75535 eV ==== 
     psi = 0.999*[#  42]
    |psi|^2 = 1.000
==== e(   5) =   -19.24581 eV ==== 
     psi = 0.423*[#   1]+0.423*[#  21]+0.055*[#  11]+0.055*[#  31]+0.015*[#  10]
          +0.015*[#  30]+0.006*[#  51]+0.002*[#  50]
    |psi|^2 = 1.000
==== e(   6) =   -19.13327 eV ==== 
     psi = 0.428*[#   1]+0.428*[#  21]+0.043*[#  11]+0.043*[#  31]+0.018*[#  51]
          +0.009*[#   5]+0.009*[#  25]+0.006*[#  10]+0.006*[#  30]+0.002*[#  63]
          +0.002*[#  67]+0.002*[#  55]+0.002*[#  59]
    |psi|^2 = 1.000
==== e(   7) =    -6.88775 eV ==== 
     psi = 0.253*[#  54]+0.253*[#  58]+0.085*[#  11]+0.085*[#  31]+0.069*[#   2]
          +0.069*[#  22]+0.055*[#  50]+0.034*[#  10]+0.034*[#  30]+0.013*[#  62]
          +0.013*[#  66]+0.008*[#  45]+0.007*[#   1]+0.007*[#  21]+0.004*[#  41]
          +0.003*[#   5]+0.003*[#  25]+0.002*[#  63]+0.002*[#  67]
    |psi|^2 = 1.000
==== e(   8) =    -5.25886 eV ==== 
     psi = 0.262*[#  62]+0.262*[#  66]+0.103*[#   2]+0.103*[#  22]+0.077*[#  10]
          +0.077*[#  30]+0.018*[#  11]+0.018*[#  31]+0.016*[#  54]+0.016*[#  58]
          +0.013*[#   1]+0.013*[#  21]+0.007*[#  50]+0.003*[#   5]+0.003*[#  25]
          +0.003*[#  63]+0.003*[#  67]+0.002*[#  55]+0.002*[#  59]
    |psi|^2 = 1.000
==== e(   9) =    -5.09857 eV ==== 
     psi = 0.455*[#  54]+0.455*[#  58]+0.043*[#  48]+0.019*[#   8]+0.019*[#  28]
          +0.003*[#  17]+0.003*[#  37]
    |psi|^2 = 0.998
==== e(  10) =    -4.52828 eV ==== 
     psi = 0.364*[#  62]+0.364*[#  66]+0.052*[#   5]+0.052*[#  25]+0.037*[#   2]
          +0.037*[#  22]+0.023*[#  54]+0.023*[#  58]+0.016*[#  51]+0.006*[#  10]
          +0.006*[#  30]+0.003*[#  14]+0.003*[#  34]+0.002*[#   1]+0.002*[#  21]
          +0.002*[#  45]+0.002*[#  50]+0.001*[#  11]+0.001*[#  31]
    |psi|^2 = 0.999
==== e(  11) =    -2.74782 eV ==== 
     psi = 0.448*[#   3]+0.448*[#  23]+0.029*[#  12]+0.029*[#  32]+0.011*[#  64]
          +0.011*[#  68]+0.011*[#  56]+0.010*[#  52]+0.002*[#  60]
    |psi|^2 = 1.000
==== e(  12) =    -2.74782 eV ==== 
     psi = 0.448*[#   4]+0.448*[#  24]+0.029*[#  13]+0.029*[#  33]+0.011*[#  65]
          +0.011*[#  69]+0.011*[#  61]+0.010*[#  53]+0.002*[#  57]
    |psi|^2 = 1.000
==== e(  13) =    -2.54272 eV ==== 
     psi = 0.469*[#   3]+0.469*[#  23]+0.022*[#  12]+0.022*[#  32]+0.004*[#  64]
          +0.004*[#  68]+0.003*[#  56]+0.003*[#  52]
    |psi|^2 = 1.000
==== e(  14) =    -2.54272 eV ==== 
     psi = 0.469*[#   4]+0.469*[#  24]+0.022*[#  13]+0.022*[#  33]+0.004*[#  65]
          +0.004*[#  69]+0.003*[#  61]+0.003*[#  53]
    |psi|^2 = 1.000
==== e(  15) =    -2.07528 eV ==== 
     psi = 0.381*[#   2]+0.381*[#  22]+0.063*[#  62]+0.063*[#  66]+0.020*[#  11]
          +0.020*[#  31]+0.009*[#  63]+0.009*[#  67]+0.008*[#  55]+0.008*[#  59]
          +0.008*[#   5]+0.008*[#  25]+0.005*[#  54]+0.005*[#  58]+0.005*[#  51]
          +0.002*[#   1]+0.002*[#  21]+0.001*[#  50]
    |psi|^2 = 1.000
==== e(  16) =    -1.46881 eV ==== 
     psi = 0.330*[#   2]+0.330*[#  22]+0.097*[#  62]+0.097*[#  66]+0.039*[#  54]
          +0.039*[#  58]+0.013*[#  63]+0.013*[#  67]+0.011*[#  51]+0.005*[#  11]
          +0.005*[#  31]+0.003*[#  45]+0.002*[#   1]+0.002*[#  21]+0.002*[#   5]
          +0.002*[#  10]+0.002*[#  25]+0.002*[#  30]+0.002*[#  55]+0.002*[#  59]
          
    |psi|^2 = 0.999
==== e(  17) =     7.35618 eV ==== 
     psi = 0.462*[#  57]+0.267*[#  61]+0.152*[#  53]+0.042*[#   7]+0.042*[#  27]
          +0.009*[#   4]+0.009*[#  24]+0.004*[#  16]+0.004*[#  36]+0.002*[#  44]
          +0.002*[#  13]+0.002*[#  33]+0.002*[#  65]+0.002*[#  69]
    |psi|^2 = 0.999
==== e(  18) =     7.35618 eV ==== 
     psi = 0.462*[#  60]+0.267*[#  56]+0.152*[#  52]+0.042*[#   6]+0.042*[#  26]
          +0.009*[#   3]+0.009*[#  23]+0.004*[#  15]+0.004*[#  35]+0.002*[#  43]
          +0.002*[#  12]+0.002*[#  32]+0.002*[#  64]+0.002*[#  68]
    |psi|^2 = 0.999
==== e(  19) =     8.15517 eV ==== 
     psi = 0.259*[#  55]+0.259*[#  59]+0.120*[#  51]+0.086*[#  63]+0.086*[#  67]
          +0.033*[#  10]+0.033*[#  30]+0.015*[#   5]+0.015*[#  25]+0.011*[#   2]
          +0.011*[#  22]+0.010*[#   1]+0.010*[#  21]+0.010*[#  62]+0.010*[#  66]
          +0.008*[#  14]+0.008*[#  34]+0.005*[#  45]+0.004*[#  11]+0.004*[#  31]
          +0.001*[#  54]+0.001*[#  58]
    |psi|^2 = 0.998
==== e(  20) =     8.86087 eV ==== 
     psi = 0.381*[#  55]+0.381*[#  59]+0.106*[#   8]+0.106*[#  28]+0.011*[#  17]
          +0.011*[#  37]
    |psi|^2 = 0.996
==== e(  21) =     8.92109 eV ==== 
     psi = 0.262*[#  63]+0.262*[#  67]+0.210*[#  45]+0.074*[#   5]+0.074*[#  25]
          +0.027*[#  50]+0.015*[#   2]+0.015*[#  22]+0.011*[#  11]+0.011*[#  31]
          +0.006*[#  10]+0.006*[#  30]+0.004*[#  14]+0.004*[#  34]+0.002*[#  51]
          +0.002*[#  54]+0.002*[#  58]+0.002*[#  62]+0.002*[#  66]+0.001*[#  55]
          +0.001*[#  59]
    |psi|^2 = 0.996
==== e(  22) =     9.61971 eV ==== 
     psi = 0.270*[#  65]+0.270*[#  69]+0.140*[#  61]+0.132*[#  57]+0.050*[#   7]
          +0.050*[#  27]+0.020*[#  47]+0.017*[#  53]+0.012*[#  20]+0.012*[#  40]
          +0.006*[#  13]+0.006*[#  33]+0.005*[#   4]+0.005*[#  24]+0.001*[#  16]
          +0.001*[#  36]
    |psi|^2 = 0.996
==== e(  23) =     9.61971 eV ==== 
     psi = 0.270*[#  64]+0.270*[#  68]+0.140*[#  56]+0.132*[#  60]+0.050*[#   6]
          +0.050*[#  26]+0.020*[#  46]+0.017*[#  52]+0.012*[#  19]+0.012*[#  39]
          +0.006*[#  12]+0.006*[#  32]+0.005*[#   3]+0.005*[#  23]+0.001*[#  15]
          +0.001*[#  35]
    |psi|^2 = 0.996
==== e(  24) =     9.81564 eV ==== 
     psi = 0.966*[#  49]+0.006*[#   9]+0.006*[#  29]+0.002*[#  18]+0.002*[#  38]
          
    |psi|^2 = 0.983
==== e(  25) =    10.00411 eV ==== 
     psi = 0.598*[#  47]+0.128*[#  65]+0.128*[#  69]+0.061*[#  61]+0.025*[#  57]
          +0.009*[#  20]+0.009*[#  40]+0.008*[#  13]+0.008*[#  33]+0.004*[#  16]
          +0.004*[#  36]+0.003*[#   7]+0.003*[#  27]+0.002*[#  53]
    |psi|^2 = 0.991
==== e(  26) =    10.00411 eV ==== 
     psi = 0.598*[#  46]+0.128*[#  64]+0.128*[#  68]+0.061*[#  56]+0.025*[#  60]
          +0.009*[#  19]+0.009*[#  39]+0.008*[#  12]+0.008*[#  32]+0.004*[#  15]
          +0.004*[#  35]+0.003*[#   6]+0.003*[#  26]+0.002*[#  52]
    |psi|^2 = 0.991
==== e(  27) =    10.46559 eV ==== 
     psi = 0.237*[#  63]+0.237*[#  67]+0.193*[#  45]+0.107*[#  55]+0.107*[#  59]
          +0.024*[#   5]+0.024*[#  25]+0.013*[#  10]+0.013*[#  30]+0.005*[#  14]
          +0.005*[#  34]+0.005*[#   2]+0.005*[#  22]+0.004*[#  62]+0.004*[#  66]
          +0.003*[#  50]+0.002*[#   1]+0.002*[#  21]+0.001*[#  51]+0.001*[#  54]
          +0.001*[#  58]
    |psi|^2 = 0.994
==== e(  28) =    10.47544 eV ==== 
     psi = 0.272*[#  61]+0.220*[#  47]+0.148*[#  65]+0.148*[#  69]+0.131*[#  57]
          +0.017*[#   7]+0.017*[#  27]+0.008*[#  16]+0.008*[#  36]+0.004*[#   4]
          +0.004*[#  13]+0.004*[#  24]+0.004*[#  33]+0.003*[#  53]+0.002*[#  20]
          +0.002*[#  40]
    |psi|^2 = 0.994
==== e(  29) =    10.47544 eV ==== 
     psi = 0.272*[#  56]+0.220*[#  46]+0.148*[#  64]+0.148*[#  68]+0.131*[#  60]
          +0.017*[#   6]+0.017*[#  26]+0.008*[#  15]+0.008*[#  35]+0.004*[#   3]
          +0.004*[#  12]+0.004*[#  23]+0.004*[#  32]+0.003*[#  52]+0.002*[#  19]
          +0.002*[#  39]
    |psi|^2 = 0.994
==== e(  30) =    10.78022 eV ==== 
     psi = 0.328*[#  65]+0.328*[#  69]+0.129*[#  47]+0.086*[#  61]+0.077*[#  57]
          +0.008*[#  20]+0.008*[#  40]+0.005*[#  16]+0.005*[#  36]+0.003*[#   7]
          +0.003*[#  13]+0.003*[#  27]+0.003*[#  33]+0.002*[#   4]+0.002*[#  24]
          
    |psi|^2 = 0.994
==== e(  31) =    10.78022 eV ==== 
     psi = 0.328*[#  64]+0.328*[#  68]+0.129*[#  46]+0.086*[#  56]+0.077*[#  60]
          +0.008*[#  19]+0.008*[#  39]+0.005*[#  15]+0.005*[#  35]+0.003*[#   6]
          +0.003*[#  12]+0.003*[#  26]+0.003*[#  32]+0.002*[#   3]+0.002*[#  23]
          
    |psi|^2 = 0.994
==== e(  32) =    10.83713 eV ==== 
     psi = 0.950*[#  48]+0.019*[#  54]+0.019*[#  58]+0.003*[#   8]+0.003*[#  28]
          
    |psi|^2 = 0.995
==== e(  33) =    11.58595 eV ==== 
     psi = 0.558*[#  45]+0.170*[#  63]+0.170*[#  67]+0.016*[#  55]+0.016*[#  59]
          +0.009*[#  54]+0.009*[#  58]+0.009*[#   5]+0.009*[#  25]+0.005*[#  14]
          +0.005*[#  34]+0.005*[#   2]+0.005*[#  22]+0.003*[#  10]+0.003*[#  30]
          
    |psi|^2 = 0.996
==== e(  34) =    13.86640 eV ==== 
     psi = 0.402*[#   8]+0.402*[#  28]+0.065*[#  17]+0.065*[#  37]+0.014*[#  55]
          +0.014*[#  59]+0.011*[#  54]+0.011*[#  58]
    |psi|^2 = 0.985
==== e(  35) =    15.28747 eV ==== 
     psi = 0.297*[#  14]+0.297*[#  34]+0.150*[#   5]+0.150*[#  25]+0.022*[#  50]
          +0.017*[#  63]+0.017*[#  67]+0.013*[#  62]+0.013*[#  66]+0.005*[#  45]
          +0.001*[#  10]+0.001*[#  30]
    |psi|^2 = 0.989
==== e(  36) =    15.39651 eV ==== 
     psi = 0.301*[#   8]+0.301*[#  28]+0.170*[#  17]+0.170*[#  37]+0.018*[#  55]
          +0.018*[#  59]+0.007*[#  54]+0.007*[#  58]
    |psi|^2 = 0.992
==== e(  37) =    15.83129 eV ==== 
     psi = 0.171*[#  14]+0.171*[#  34]+0.109*[#  10]+0.109*[#  30]+0.071*[#   5]
          +0.071*[#  25]+0.049*[#  11]+0.049*[#  31]+0.047*[#  62]+0.047*[#  66]
          +0.019*[#  63]+0.019*[#  67]+0.014*[#   1]+0.014*[#  21]+0.007*[#   2]
          +0.007*[#  22]+0.006*[#  50]+0.004*[#  54]+0.004*[#  58]+0.002*[#  45]
          +0.002*[#  51]
    |psi|^2 = 0.992
==== e(  38) =    15.95711 eV ==== 
     psi = 0.493*[#  18]+0.493*[#  38]+0.005*[#   9]+0.005*[#  29]+0.002*[#  49]
          
    |psi|^2 = 0.998
==== e(  39) =    15.97730 eV ==== 
     psi = 0.174*[#  15]+0.174*[#  35]+0.135*[#  19]+0.135*[#  39]+0.092*[#  16]
          +0.092*[#  36]+0.072*[#  20]+0.072*[#  40]+0.014*[#   6]+0.014*[#  26]
          +0.007*[#   7]+0.007*[#  27]+0.002*[#  60]+0.001*[#  46]
    |psi|^2 = 0.997
==== e(  40) =    15.97730 eV ==== 
     psi = 0.174*[#  16]+0.174*[#  36]+0.135*[#  20]+0.135*[#  40]+0.092*[#  15]
          +0.092*[#  35]+0.072*[#  19]+0.072*[#  39]+0.014*[#   7]+0.014*[#  27]
          +0.007*[#   6]+0.007*[#  26]+0.002*[#  57]+0.001*[#  47]
    |psi|^2 = 0.997

Lowdin Charges: 

     Atom #   1: total charge =  10.2472, s =  2.1365, 
     Atom #   1: total charge =  10.2472, p =  6.4450, pz=  2.1879, px=  2.1819, py=  2.0752, 
     Atom #   1: total charge =  10.2472, d =  1.4031, dz2=  0.3913, dxz=  0.3088, dyz=  0.2606, dx2-y2=  0.2287, dxy=  0.2138, 
     Atom #   1: total charge =  10.2472, f =  0.2625, fz3=  0.0497, fxz2=  0.0438, fyz2=  0.0428, fzx2-zy2=  0.0318, fxyz=  0.0191, fx3-3xy2=  0.0411, f3yx2-y3=  0.0341, 
     Atom #   2: total charge =  10.2472, s =  2.1365, 
     Atom #   2: total charge =  10.2472, p =  6.4450, pz=  2.1879, px=  2.1819, py=  2.0752, 
     Atom #   2: total charge =  10.2472, d =  1.4031, dz2=  0.3913, dxz=  0.3088, dyz=  0.2606, dx2-y2=  0.2287, dxy=  0.2138, 
     Atom #   2: total charge =  10.2472, f =  0.2625, fz3=  0.0497, fxz2=  0.0438, fyz2=  0.0428, fzx2-zy2=  0.0318, fxyz=  0.0191, fx3-3xy2=  0.0411, f3yx2-y3=  0.0341, 
     Atom #   3: total charge =  18.7602, s =  2.2876, 
     Atom #   3: total charge =  18.7602, p =  7.0563, pz=  2.3153, px=  2.3828, py=  2.3583, 
     Atom #   3: total charge =  18.7602, d =  9.4162, dz2=  1.9335, dxz=  1.9496, dyz=  1.9376, dx2-y2=  1.6403, dxy=  1.9553, 
     Atom #   3: total charge =  18.7602, f =  0.0000, fz3=  0.0000, fxz2=  0.0000, fyz2=  0.0000, fzx2-zy2=  0.0000, fxyz=  0.0000, fx3-3xy2=  0.0000, f3yx2-y3=  0.0000, 
     Atom #   4: total charge =   6.4179, s =  1.6172, 
     Atom #   4: total charge =   6.4179, p =  4.8007, pz=  1.6129, px=  1.6800, py=  1.5077, 
     Atom #   4: total charge =   6.4179, d =  0.0000, dz2=  0.0000, dxz=  0.0000, dyz=  0.0000, dx2-y2=  0.0000, dxy=  0.0000, 
     Atom #   4: total charge =   6.4179, f =  0.0000, fz3=  0.0000, fxz2=  0.0000, fyz2=  0.0000, fzx2-zy2=  0.0000, fxyz=  0.0000, fx3-3xy2=  0.0000, f3yx2-y3=  0.0000, 
     Atom #   5: total charge =   6.3694, s =  1.5909, 
     Atom #   5: total charge =   6.3694, p =  4.7785, pz=  1.6305, px=  1.4584, py=  1.6895, 
     Atom #   5: total charge =   6.3694, d =  0.0000, dz2=  0.0000, dxz=  0.0000, dyz=  0.0000, dx2-y2=  0.0000, dxy=  0.0000, 
     Atom #   5: total charge =   6.3694, f =  0.0000, fz3=  0.0000, fxz2=  0.0000, fyz2=  0.0000, fzx2-zy2=  0.0000, fxyz=  0.0000, fx3-3xy2=  0.0000, f3yx2-y3=  0.0000, 
     Atom #   6: total charge =   6.5495, s =  1.6501, 
     Atom #   6: total charge =   6.5495, p =  4.8994, pz=  1.5893, px=  1.6362, py=  1.6738, 
     Atom #   6: total charge =   6.5495, d =  0.0000, dz2=  0.0000, dxz=  0.0000, dyz=  0.0000, dx2-y2=  0.0000, dxy=  0.0000, 
     Atom #   6: total charge =   6.5495, f =  0.0000, fz3=  0.0000, fxz2=  0.0000, fyz2=  0.0000, fzx2-zy2=  0.0000, fxyz=  0.0000, fx3-3xy2=  0.0000, f3yx2-y3=  0.0000, 
     Atom #   7: total charge =   6.5495, s =  1.6501, 
     Atom #   7: total charge =   6.5495, p =  4.8994, pz=  1.5893, px=  1.6362, py=  1.6738, 
     Atom #   7: total charge =   6.5495, d =  0.0000, dz2=  0.0000, dxz=  0.0000, dyz=  0.0000, dx2-y2=  0.0000, dxy=  0.0000, 
     Atom #   7: total charge =   6.5495, f =  0.0000, fz3=  0.0000, fxz2=  0.0000, fyz2=  0.0000, fzx2-zy2=  0.0000, fxyz=  0.0000, fx3-3xy2=  0.0000, f3yx2-y3=  0.0000, 
     Spilling Parameter:  -0.0022

     PROJWFC      :      7.53s CPU     12.17s WALL


   This run was terminated on:  16:50:24  27Apr2022            

=------------------------------------------------------------------------------=
   JOB DONE.
=------------------------------------------------------------------------------=
